 Entering Gaussian System, Link 0=g16
 Initial command:
 /opt/software/Gaussian/g16-AVX/g16/l1.exe "/mnt/gs18/scratch/users/pengfei/Gau-31229.inp" -scrdir="/mnt/gs18/scratch/users/pengfei/"
 Entering Link 1 = /opt/software/Gaussian/g16-AVX/g16/l1.exe PID=     31273.
  
 Copyright (c) 1988,1990,1992,1993,1995,1998,2003,2009,2016,
            Gaussian, Inc.  All Rights Reserved.
  
 This is part of the Gaussian(R) 16 program.  It is based on
 the Gaussian(R) 09 system (copyright 2009, Gaussian, Inc.),
 the Gaussian(R) 03 system (copyright 2003, Gaussian, Inc.),
 the Gaussian(R) 98 system (copyright 1998, Gaussian, Inc.),
 the Gaussian(R) 94 system (copyright 1995, Gaussian, Inc.),
 the Gaussian 92(TM) system (copyright 1992, Gaussian, Inc.),
 the Gaussian 90(TM) system (copyright 1990, Gaussian, Inc.),
 the Gaussian 88(TM) system (copyright 1988, Gaussian, Inc.),
 the Gaussian 86(TM) system (copyright 1986, Carnegie Mellon
 University), and the Gaussian 82(TM) system (copyright 1983,
 Carnegie Mellon University). Gaussian is a federally registered
 trademark of Gaussian, Inc.
  
 This software contains proprietary and confidential information,
 including trade secrets, belonging to Gaussian, Inc.
  
 This software is provided under written license and may be
 used, copied, transmitted, or stored only in accord with that
 written license.
  
 The following legend is applicable only to US Government
 contracts under FAR:
  
                    RESTRICTED RIGHTS LEGEND
  
 Use, reproduction and disclosure by the US Government is
 subject to restrictions as set forth in subparagraphs (a)
 and (c) of the Commercial Computer Software - Restricted
 Rights clause in FAR 52.227-19.
  
 Gaussian, Inc.
 340 Quinnipiac St., Bldg. 40, Wallingford CT 06492
  
  
 ---------------------------------------------------------------
 Warning -- This program may not be used in any manner that
 competes with the business of Gaussian, Inc. or will provide
 assistance to any competitor of Gaussian, Inc.  The licensee
 of this program is prohibited from giving any competitor of
 Gaussian, Inc. access to this program.  By using this program,
 the user acknowledges that Gaussian, Inc. is engaged in the
 business of creating and licensing software in the field of
 computational chemistry and represents and warrants to the
 licensee that it is not a competitor of Gaussian, Inc. and that
 it will not use this program in any manner prohibited above.
 ---------------------------------------------------------------
  

 Cite this work as:
 Gaussian 16, Revision A.03,
 M. J. Frisch, G. W. Trucks, H. B. Schlegel, G. E. Scuseria, 
 M. A. Robb, J. R. Cheeseman, G. Scalmani, V. Barone, 
 G. A. Petersson, H. Nakatsuji, X. Li, M. Caricato, A. V. Marenich, 
 J. Bloino, B. G. Janesko, R. Gomperts, B. Mennucci, H. P. Hratchian, 
 J. V. Ortiz, A. F. Izmaylov, J. L. Sonnenberg, D. Williams-Young, 
 F. Ding, F. Lipparini, F. Egidi, J. Goings, B. Peng, A. Petrone, 
 T. Henderson, D. Ranasinghe, V. G. Zakrzewski, J. Gao, N. Rega, 
 G. Zheng, W. Liang, M. Hada, M. Ehara, K. Toyota, R. Fukuda, 
 J. Hasegawa, M. Ishida, T. Nakajima, Y. Honda, O. Kitao, H. Nakai, 
 T. Vreven, K. Throssell, J. A. Montgomery, Jr., J. E. Peralta, 
 F. Ogliaro, M. J. Bearpark, J. J. Heyd, E. N. Brothers, K. N. Kudin, 
 V. N. Staroverov, T. A. Keith, R. Kobayashi, J. Normand, 
 K. Raghavachari, A. P. Rendell, J. C. Burant, S. S. Iyengar, 
 J. Tomasi, M. Cossi, J. M. Millam, M. Klene, C. Adamo, R. Cammi, 
 J. W. Ochterski, R. L. Martin, K. Morokuma, O. Farkas, 
 J. B. Foresman, and D. J. Fox, Gaussian, Inc., Wallingford CT, 2016.
 
 ******************************************
 Gaussian 16:  ES64L-G16RevA.03 25-Dec-2016
                25-Mar-2021 
 ******************************************
 %Chk=1A5T_large_mk.chk
 %Mem=12GB
 %NProcShared=8
 Will use up to    8 processors via shared memory.
 ----------------------------------------------------------------------
 # B3LYP/6-31G* Integral=(Grid=UltraFine) Pop(MK,ReadRadii) IOp(6/33=2,
 6/42=6)
 ----------------------------------------------------------------------
 1/38=1,172=1/1;
 2/12=2,17=6,18=5,40=1/2;
 3/5=1,6=6,7=1,11=2,25=1,30=1,74=-5,75=-5/1,2,3;
 4//1;
 5/5=2,38=5/2;
 6/7=2,8=2,9=2,10=2,15=8,20=101,28=1,33=2,42=6/1,2;
 99/5=1,9=1/99;
 ---
 CLR
 ---
 Symbolic Z-matrix:
 Charge = -2 Multiplicity = 1
 H                     19.368    53.242    51.265 
 C                     19.778    54.251    51.212 
 C                     18.904    55.134    50.319 
 O                     19.264    56.288    50.038 
 H                     20.809    54.225    50.86 
 H                     19.813    54.682    52.212 
 N                     17.791    54.601    49.826 
 C                     16.907    55.427    49.022 
 C                     16.024    56.213    49.989 
 O                     15.317    55.653    50.829 
 C                     16.045    54.627    48.05 
 S                     15.055    55.715    46.973 
 H                     17.572    53.633    50.014 
 H                     17.501    56.104    48.407 
 H                     16.685    54.01     47.419 
 H                     15.363    53.987    48.61 
 N                     16.101    57.533    49.881 
 C                     15.329    58.396    50.755 
 H                     14.278    58.431    50.468 
 H                     15.754    59.4      50.751 
 H                     16.703    57.945    49.183 
 H                     15.39     58.026    51.778 
 H                     15.071    51.842    44.355 
 C                     15.55     52.786    44.613 
 C                     14.921    53.743    43.57 
 O                     14.653    53.316    42.449 
 H                     16.615    52.67     44.41 
 H                     15.306    53.049    45.642 
 N                     14.67     55.011    43.896 
 C                     14.057    55.891    42.884 
 C                     15.017    56.344    41.773 
 O                     14.613    56.524    40.62 
 C                     13.39     57.099    43.544 
 S                     14.531    58.159    44.482 
 H                     14.9      55.347    44.82 
 H                     13.233    55.368    42.399 
 H                     12.929    57.724    42.779 
 H                     12.625    56.757    44.241 
 N                     16.287    56.546    42.123 
 C                     17.289    56.993    41.151 
 C                     17.319    58.499    40.93 
 O                     18.013    58.971    40.04 
 H                     16.575    56.39     43.078 
 H                     18.282    56.701    41.492 
 H                     17.088    56.533    40.183 
 N                     16.606    59.235    41.784 
 C                     16.476    60.687    41.721 
 C                     16.819    61.4      43.03 
 O                     17.517    62.407    42.995 
 H                     15.456    60.949    41.44 
 H                     16.108    58.786    42.54 
 H                     17.146    61.079    40.956 
 N                     16.342    60.894    44.168 
 C                     16.609    61.52     45.47 
 C                     18.102    61.749    45.643 
 O                     18.909    61.12     44.947 
 C                     16.075    60.662    46.631 
 S                     17.056    59.153    47.047 
 H                     15.779    60.056    44.148 
 H                     16.092    62.478    45.526 
 H                     16.044    61.261    47.541 
 H                     15.071    60.311    46.392 
 N                     18.482    62.62     46.575 
 C                     19.906    62.921    46.785 
 C                     20.759    61.711    47.188 
 O                     21.928    61.589    46.784 
 H                     20.044    63.745    47.485 
 H                     17.787    63.08     47.145 
 H                     20.334    63.317    45.864 
 N                     20.16     60.808    47.963 
 C                     20.858    59.609    48.41 
 C                     21.27     58.767    47.232 
 O                     22.399    58.286    47.174 
 H                     19.202    60.95     48.251 
 H                     21.749    59.894    48.969 
 H                     20.2      59.022    49.051 
 N                     20.342    58.574    46.298 
 C                     20.622    57.804    45.085 
 C                     21.647    58.549    44.244 
 O                     22.493    57.919    43.615 
 C                     19.34     57.582    44.265 
 S                     18.138    56.425    45. 
 H                     19.418    58.964    46.42 
 H                     21.016    56.825    45.358 
 H                     18.819    58.531    44.14 
 H                     19.599    57.179    43.286 
 N                     21.559    59.881    44.217 
 C                     22.501    60.696    43.447 
 H                     23.514    60.542    43.819 
 H                     22.224    61.75     43.48 
 H                     20.829    60.346    44.737 
 H                     22.456    60.409    42.396 
 Zn                    16.2      57.412    45.833 
 
 Stoichiometry    C26H42N10O10S4Zn(2-)
 Framework group  C1[X(C26H42N10O10S4Zn)]
 Deg. of freedom   273
 Full point group                 C1      NOp   1
 Largest Abelian subgroup         C1      NOp   1
 Largest concise Abelian subgroup C1      NOp   1
                         Standard orientation:                         
 ---------------------------------------------------------------------
 Center     Atomic      Atomic             Coordinates (Angstroms)
 Number     Number       Type             X           Y           Z
 ---------------------------------------------------------------------
      1          1           0       -1.042989    7.050161    2.681741
      2          6           0       -0.068682    6.707814    2.331721
      3          6           0       -0.229875    5.496698    1.410728
      4          8           0        0.770197    4.887773    0.999215
      5          1           0        0.581642    6.482243    3.176551
      6          1           0        0.421902    7.509689    1.780984
      7          7           0       -1.465710    5.103673    1.120645
      8          6           0       -1.658074    3.993975    0.203194
      9          6           0       -1.577058    4.562203   -1.212125
     10          8           0       -2.318892    5.469140   -1.594480
     11          6           0       -2.981500    3.261850    0.404099
     12         16           0       -3.114806    1.799636   -0.676611
     13          1           0       -2.254100    5.577394    1.538208
     14          1           0       -0.877424    3.249545    0.363811
     15          1           0       -3.060906    2.931205    1.439869
     16          1           0       -3.808156    3.934183    0.174031
     17          7           0       -0.633305    4.034874   -1.981052
     18          6           0       -0.436740    4.500842   -3.340781
     19          1           0       -1.203303    4.120935   -4.016242
     20          1           0        0.553025    4.207602   -3.691544
     21          1           0       -0.043302    3.300112   -1.618598
     22          1           0       -0.474709    5.589552   -3.361271
     23          1           0       -6.210523    0.610837    2.618477
     24          6           0       -5.179486    0.588625    2.266893
     25          6           0       -5.142253   -0.764769    1.514379
     26          8           0       -5.815089   -1.703564    1.934797
     27          1           0       -4.541793    0.535827    3.149757
     28          1           0       -4.996481    1.446685    1.620528
     29          7           0       -4.392258   -0.897873    0.420354
     30          6           0       -4.391423   -2.195366   -0.280237
     31          6           0       -3.590488   -3.298189    0.429280
     32          8           0       -3.947357   -4.478959    0.370552
     33          6           0       -3.919762   -2.033879   -1.726339
     34         16           0       -2.226342   -1.392821   -1.889723
     35          1           0       -3.842216   -0.117969    0.090542
     36          1           0       -5.414998   -2.557025   -0.376293
     37          1           0       -3.945104   -3.001273   -2.228212
     38          1           0       -4.576874   -1.338320   -2.248258
     39          7           0       -2.495664   -2.916257    1.086313
     40          6           0       -1.645643   -3.882512    1.788035
     41          6           0       -0.626322   -4.581489    0.899108
     42          8           0        0.037347   -5.507776    1.344142
     43          1           0       -2.237745   -1.940364    1.106704
     44          1           0       -1.087600   -3.372979    2.573247
     45          1           0       -2.267938   -4.660374    2.231549
     46          7           0       -0.478825   -4.087119   -0.331024
     47          6           0        0.417187   -4.634882   -1.344085
     48          6           0        1.371505   -3.606156   -1.952772
     49          8           0        2.550810   -3.903895   -2.104655
     50          1           0       -0.170377   -5.080709   -2.146588
     51          1           0       -1.011018   -3.275938   -0.613683
     52          1           0        1.030087   -5.419680   -0.901100
     53          7           0        0.879689   -2.415231   -2.296899
     54          6           0        1.719340   -1.371677   -2.900513
     55          6           0        2.960164   -1.144049   -2.052008
     56          8           0        2.979388   -1.516180   -0.871985
     57          6           0        0.949130   -0.049006   -3.063474
     58         16           0        0.674543    0.929147   -1.520647
     59          1           0       -0.097418   -2.211962   -2.143420
     60          1           0        2.022609   -1.681846   -3.900520
     61          1           0        1.493389    0.606961   -3.742703
     62          1           0       -0.041550   -0.252751   -3.470144
     63          7           0        3.985351   -0.518057   -2.625411
     64          6           0        5.233244   -0.285746   -1.882934
     65          6           0        5.071696    0.570084   -0.619773
     66          8           0        5.744617    0.340080    0.399510
     67          1           0        6.015941    0.114875   -2.527068
     68          1           0        3.907627   -0.198409   -3.580036
     69          1           0        5.651606   -1.241208   -1.566222
     70          7           0        4.159227    1.538584   -0.684903
     71          6           0        3.903274    2.417615    0.449296
     72          6           0        3.415469    1.625213    1.632738
     73          8           0        3.871930    1.834461    2.753998
     74          1           0        3.629359    1.672794   -1.534668
     75          1           0        4.823032    2.933200    0.724622
     76          1           0        3.143736    3.150953    0.177759
     77          7           0        2.469292    0.723480    1.382905
     78          6           0        1.931876   -0.137832    2.437417
     79          6           0        3.025258   -1.076552    2.923475
     80          8           0        3.082684   -1.381716    4.111681
     81          6           0        0.735163   -0.956120    1.924104
     82         16           0       -0.784456    0.001508    1.612039
     83          1           0        2.105828    0.623485    0.445539
     84          1           0        1.583096    0.476935    3.267248
     85          1           0        0.998740   -1.433849    0.980722
     86          1           0        0.474951   -1.719845    2.656870
     87          7           0        3.874505   -1.547166    2.006961
     88          6           0        4.969460   -2.449902    2.368388
     89          1           0        5.641773   -1.954624    3.069077
     90          1           0        5.504280   -2.790657    1.481490
     91          1           0        3.767035   -1.279442    1.039335
     92          1           0        4.562194   -3.347894    2.833940
     93         30           0       -1.332744    0.278813   -0.634376
 ---------------------------------------------------------------------
 Rotational constants (GHZ):           0.0528739           0.0508239           0.0355156
 Standard basis: 6-31G(d) (6D, 7F)
 There are   889 symmetry adapted cartesian basis functions of A   symmetry.
 There are   886 symmetry adapted basis functions of A   symmetry.
   886 basis functions,  1768 primitive gaussians,   889 cartesian basis functions
   222 alpha electrons      222 beta electrons
       nuclear repulsion energy     10357.8650047149 Hartrees.
 NAtoms=   93 NActive=   93 NUniq=   93 SFac= 1.00D+00 NAtFMM=   60 NAOKFM=T Big=T
 Integral buffers will be    131072 words long.
 Raffenetti 2 integral format.
 Two-electron integral symmetry is turned on.
 One-electron integrals computed using PRISM.
 NBasis=   886 RedAO= T EigKep=  1.08D-03  NBF=   886
 NBsUse=   886 1.00D-06 EigRej= -1.00D+00 NBFU=   886
 ExpMin= 4.93D-02 ExpMax= 8.24D+04 ExpMxC= 1.24D+04 IAcc=3 IRadAn=         5 AccDes= 0.00D+00
 Harris functional with IExCor=  402 and IRadAn=       5 diagonalized for initial guess.
 HarFok:  IExCor=  402 AccDes= 0.00D+00 IRadAn=         5 IDoV= 1 UseB2=F ITyADJ=14
 ICtDFT=  3500011 ScaDFX=  1.000000  1.000000  1.000000  1.000000
 FoFCou: FMM=F IPFlag=           0 FMFlag=      100000 FMFlg1=        2001
         NFxFlg=           0 DoJE=T BraDBF=F KetDBF=T FulRan=T
         wScrn=  0.000000 ICntrl=       500 IOpCl=  0 I1Cent=   200000004 NGrid=           0
         NMat0=    1 NMatS0=      1 NMatT0=    0 NMatD0=    1 NMtDS0=    0 NMtDT0=    0
 Petite list used in FoFCou.
 Requested convergence on RMS density matrix=1.00D-08 within 128 cycles.
 Requested convergence on MAX density matrix=1.00D-06.
 Requested convergence on             energy=1.00D-06.
 No special actions if energy rises.
 EnCoef did     4 forward-backward iterations
 SCF Done:  E(RB3LYP) =  -5688.02557934     A.U. after   16 cycles
            NFock= 16  Conv=0.55D-08     -V/T= 2.0049
 SCF density gives NOpUse=  1 NOpAll=  1.

 **********************************************************************

            Population analysis using the SCF density.

 **********************************************************************

 Orbital symmetries:
 BldTbl:  Degeneracy threshold= 1.00D-02
       Occupied  (A) (A) (A) (A) (A) (A) (A) (A) (A) (A) (A) (A)
                 (A) (A) (A) (A) (A) (A) (A) (A) (A) (A) (A) (A)
                 (A) (A) (A) (A) (A) (A) (A) (A) (A) (A) (A) (A)
                 (A) (A) (A) (A) (A) (A) (A) (A) (A) (A) (A) (A)
                 (A) (A) (A) (A) (A) (A) (A) (A) (A) (A) (A) (A)
                 (A) (A) (A) (A) (A) (A) (A) (A) (A) (A) (A) (A)
                 (A) (A) (A) (A) (A) (A) (A) (A) (A) (A) (A) (A)
                 (A) (A) (A) (A) (A) (A) (A) (A) (A) (A) (A) (A)
                 (A) (A) (A) (A) (A) (A) (A) (A) (A) (A) (A) (A)
                 (A) (A) (A) (A) (A) (A) (A) (A) (A) (A) (A) (A)
                 (A) (A) (A) (A) (A) (A) (A) (A) (A) (A) (A) (A)
                 (A) (A) (A) (A) (A) (A) (A) (A) (A) (A) (A) (A)
                 (A) (A) (A) (A) (A) (A) (A) (A) (A) (A) (A) (A)
                 (A) (A) (A) (A) (A) (A) (A) (A) (A) (A) (A) (A)
                 (A) (A) (A) (A) (A) (A) (A) (A) (A) (A) (A) (A)
                 (A) (A) (A) (A) (A) (A) (A) (A) (A) (A) (A) (A)
                 (A) (A) (A) (A) (A) (A) (A) (A) (A) (A) (A) (A)
                 (A) (A) (A) (A) (A) (A) (A) (A) (A) (A) (A) (A)
                 (A) (A) (A) (A) (A) (A)
       Virtual   (A) (A) (A) (A) (A) (A) (A) (A) (A) (A) (A) (A)
                 (A) (A) (A) (A) (A) (A) (A) (A) (A) (A) (A) (A)
                 (A) (A) (A) (A) (A) (A) (A) (A) (A) (A) (A) (A)
                 (A) (A) (A) (A) (A) (A) (A) (A) (A) (A) (A) (A)
                 (A) (A) (A) (A) (A) (A) (A) (A) (A) (A) (A) (A)
                 (A) (A) (A) (A) (A) (A) (A) (A) (A) (A) (A) (A)
                 (A) (A) (A) (A) (A) (A) (A) (A) (A) (A) (A) (A)
                 (A) (A) (A) (A) (A) (A) (A) (A) (A) (A) (A) (A)
                 (A) (A) (A) (A) (A) (A) (A) (A) (A) (A) (A) (A)
                 (A) (A) (A) (A) (A) (A) (A) (A) (A) (A) (A) (A)
                 (A) (A) (A) (A) (A) (A) (A) (A) (A) (A) (A) (A)
                 (A) (A) (A) (A) (A) (A) (A) (A) (A) (A) (A) (A)
                 (A) (A) (A) (A) (A) (A) (A) (A) (A) (A) (A) (A)
                 (A) (A) (A) (A) (A) (A) (A) (A) (A) (A) (A) (A)
                 (A) (A) (A) (A) (A) (A) (A) (A) (A) (A) (A) (A)
                 (A) (A) (A) (A) (A) (A) (A) (A) (A) (A) (A) (A)
                 (A) (A) (A) (A) (A) (A) (A) (A) (A) (A) (A) (A)
                 (A) (A) (A) (A) (A) (A) (A) (A) (A) (A) (A) (A)
                 (A) (A) (A) (A) (A) (A) (A) (A) (A) (A) (A) (A)
                 (A) (A) (A) (A) (A) (A) (A) (A) (A) (A) (A) (A)
                 (A) (A) (A) (A) (A) (A) (A) (A) (A) (A) (A) (A)
                 (A) (A) (A) (A) (A) (A) (A) (A) (A) (A) (A) (A)
                 (A) (A) (A) (A) (A) (A) (A) (A) (A) (A) (A) (A)
                 (A) (A) (A) (A) (A) (A) (A) (A) (A) (A) (A) (A)
                 (A) (A) (A) (A) (A) (A) (A) (A) (A) (A) (A) (A)
                 (A) (A) (A) (A) (A) (A) (A) (A) (A) (A) (A) (A)
                 (A) (A) (A) (A) (A) (A) (A) (A) (A) (A) (A) (A)
                 (A) (A) (A) (A) (A) (A) (A) (A) (A) (A) (A) (A)
                 (A) (A) (A) (A) (A) (A) (A) (A) (A) (A) (A) (A)
                 (A) (A) (A) (A) (A) (A) (A) (A) (A) (A) (A) (A)
                 (A) (A) (A) (A) (A) (A) (A) (A) (A) (A) (A) (A)
                 (A) (A) (A) (A) (A) (A) (A) (A) (A) (A) (A) (A)
                 (A) (A) (A) (A) (A) (A) (A) (A) (A) (A) (A) (A)
                 (A) (A) (A) (A) (A) (A) (A) (A) (A) (A) (A) (A)
                 (A) (A) (A) (A) (A) (A) (A) (A) (A) (A) (A) (A)
                 (A) (A) (A) (A) (A) (A) (A) (A) (A) (A) (A) (A)
                 (A) (A) (A) (A) (A) (A) (A) (A) (A) (A) (A) (A)
                 (A) (A) (A) (A) (A) (A) (A) (A) (A) (A) (A) (A)
                 (A) (A) (A) (A) (A) (A) (A) (A) (A) (A) (A) (A)
                 (A) (A) (A) (A) (A) (A) (A) (A) (A) (A) (A) (A)
                 (A) (A) (A) (A) (A) (A) (A) (A) (A) (A) (A) (A)
                 (A) (A) (A) (A) (A) (A) (A) (A) (A) (A) (A) (A)
                 (A) (A) (A) (A) (A) (A) (A) (A) (A) (A) (A) (A)
                 (A) (A) (A) (A) (A) (A) (A) (A) (A) (A) (A) (A)
                 (A) (A) (A) (A) (A) (A) (A) (A) (A) (A) (A) (A)
                 (A) (A) (A) (A) (A) (A) (A) (A) (A) (A) (A) (A)
                 (A) (A) (A) (A) (A) (A) (A) (A) (A) (A) (A) (A)
                 (A) (A) (A) (A) (A) (A) (A) (A) (A) (A) (A) (A)
                 (A) (A) (A) (A) (A) (A) (A) (A) (A) (A) (A) (A)
                 (A) (A) (A) (A) (A) (A) (A) (A) (A) (A) (A) (A)
                 (A) (A) (A) (A) (A) (A) (A) (A) (A) (A) (A) (A)
                 (A) (A) (A) (A) (A) (A) (A) (A) (A) (A) (A) (A)
                 (A) (A) (A) (A) (A) (A) (A) (A) (A) (A) (A) (A)
                 (A) (A) (A) (A) (A) (A) (A) (A) (A) (A) (A) (A)
                 (A) (A) (A) (A) (A) (A) (A) (A) (A) (A) (A) (A)
                 (A) (A) (A) (A)
 The electronic state is 1-A.
 Alpha  occ. eigenvalues -- -347.03549 -88.64729 -88.63931 -88.62452 -88.61418
 Alpha  occ. eigenvalues --  -42.00367 -36.98804 -36.98767 -36.98682 -18.96274
 Alpha  occ. eigenvalues --  -18.95805 -18.94590 -18.93893 -18.93053 -18.92442
 Alpha  occ. eigenvalues --  -18.92093 -18.91759 -18.91529 -18.90477 -14.23625
 Alpha  occ. eigenvalues --  -14.21058 -14.20767 -14.18859 -14.17974 -14.17763
 Alpha  occ. eigenvalues --  -14.16658 -14.16265 -14.15761 -14.15624 -10.13889
 Alpha  occ. eigenvalues --  -10.13644 -10.13009 -10.11400 -10.10119 -10.10069
 Alpha  occ. eigenvalues --  -10.10014 -10.09677 -10.09455 -10.09114 -10.08642
 Alpha  occ. eigenvalues --  -10.07718 -10.05951 -10.05890 -10.05674 -10.05489
 Alpha  occ. eigenvalues --  -10.05390 -10.05363 -10.05098 -10.04561 -10.03914
 Alpha  occ. eigenvalues --  -10.03720 -10.03117 -10.02790 -10.01090 -10.00901
 Alpha  occ. eigenvalues --   -7.70980  -7.70341  -7.68772  -7.67673  -5.67537
 Alpha  occ. eigenvalues --   -5.66883  -5.66866  -5.66647  -5.66218  -5.66045
 Alpha  occ. eigenvalues --   -5.65334  -5.64634  -5.64451  -5.64200  -5.63552
 Alpha  occ. eigenvalues --   -5.63391  -4.58213  -2.97418  -2.97364  -2.97152
 Alpha  occ. eigenvalues --   -0.89150  -0.87490  -0.87027  -0.86265  -0.85224
 Alpha  occ. eigenvalues --   -0.85221  -0.84637  -0.84103  -0.83812  -0.82709
 Alpha  occ. eigenvalues --   -0.79227  -0.77072  -0.76754  -0.76092  -0.74732
 Alpha  occ. eigenvalues --   -0.74601  -0.73648  -0.73349  -0.72325  -0.71414
 Alpha  occ. eigenvalues --   -0.63970  -0.62507  -0.61306  -0.60836  -0.58950
 Alpha  occ. eigenvalues --   -0.58587  -0.57566  -0.55660  -0.55368  -0.55190
 Alpha  occ. eigenvalues --   -0.54035  -0.52896  -0.51913  -0.50191  -0.49714
 Alpha  occ. eigenvalues --   -0.48207  -0.46645  -0.44303  -0.44254  -0.43688
 Alpha  occ. eigenvalues --   -0.42754  -0.42035  -0.41382  -0.41195  -0.40752
 Alpha  occ. eigenvalues --   -0.40049  -0.39840  -0.39366  -0.38802  -0.38561
 Alpha  occ. eigenvalues --   -0.38135  -0.37176  -0.36817  -0.36020  -0.34663
 Alpha  occ. eigenvalues --   -0.34385  -0.33494  -0.32974  -0.32223  -0.32119
 Alpha  occ. eigenvalues --   -0.31749  -0.31323  -0.31283  -0.30405  -0.29943
 Alpha  occ. eigenvalues --   -0.29565  -0.29456  -0.29094  -0.28803  -0.28680
 Alpha  occ. eigenvalues --   -0.27956  -0.27351  -0.27027  -0.26799  -0.26588
 Alpha  occ. eigenvalues --   -0.26564  -0.26493  -0.26094  -0.26011  -0.25522
 Alpha  occ. eigenvalues --   -0.25284  -0.24887  -0.24834  -0.24617  -0.24469
 Alpha  occ. eigenvalues --   -0.24177  -0.24004  -0.23904  -0.23660  -0.23627
 Alpha  occ. eigenvalues --   -0.23402  -0.23329  -0.23102  -0.23011  -0.22817
 Alpha  occ. eigenvalues --   -0.22560  -0.22274  -0.21684  -0.21566  -0.21368
 Alpha  occ. eigenvalues --   -0.21124  -0.20983  -0.20448  -0.20254  -0.20110
 Alpha  occ. eigenvalues --   -0.19961  -0.19754  -0.19106  -0.18796  -0.18629
 Alpha  occ. eigenvalues --   -0.18393  -0.18039  -0.17933  -0.17440  -0.16837
 Alpha  occ. eigenvalues --   -0.15453  -0.15067  -0.14461  -0.13100  -0.12960
 Alpha  occ. eigenvalues --   -0.11026  -0.10690  -0.10393  -0.09805  -0.09414
 Alpha  occ. eigenvalues --   -0.09158  -0.08976  -0.08789  -0.08477  -0.08151
 Alpha  occ. eigenvalues --   -0.07674  -0.07185  -0.07005  -0.06167  -0.06116
 Alpha  occ. eigenvalues --   -0.05656  -0.05527  -0.05505  -0.05281  -0.04844
 Alpha  occ. eigenvalues --   -0.04638  -0.03729  -0.03062  -0.02905  -0.01386
 Alpha  occ. eigenvalues --   -0.00743   0.00058
 Alpha virt. eigenvalues --    0.16573   0.17064   0.18229   0.18506   0.19743
 Alpha virt. eigenvalues --    0.20115   0.20851   0.21202   0.21371   0.21598
 Alpha virt. eigenvalues --    0.21905   0.22034   0.22316   0.22876   0.24065
 Alpha virt. eigenvalues --    0.24608   0.25176   0.25542   0.26342   0.26529
 Alpha virt. eigenvalues --    0.26644   0.26874   0.27295   0.27846   0.28588
 Alpha virt. eigenvalues --    0.29052   0.29570   0.29717   0.29972   0.30184
 Alpha virt. eigenvalues --    0.30291   0.30635   0.30856   0.30999   0.31343
 Alpha virt. eigenvalues --    0.31608   0.31939   0.32068   0.32255   0.32676
 Alpha virt. eigenvalues --    0.32905   0.33047   0.33274   0.33456   0.33551
 Alpha virt. eigenvalues --    0.33779   0.33901   0.33983   0.34382   0.34510
 Alpha virt. eigenvalues --    0.35050   0.35265   0.35505   0.35874   0.36040
 Alpha virt. eigenvalues --    0.36516   0.36840   0.36985   0.37095   0.37466
 Alpha virt. eigenvalues --    0.38215   0.38519   0.38799   0.39113   0.39660
 Alpha virt. eigenvalues --    0.39904   0.40411   0.40559   0.41147   0.41381
 Alpha virt. eigenvalues --    0.42102   0.42403   0.42933   0.43084   0.43722
 Alpha virt. eigenvalues --    0.44046   0.44151   0.44943   0.45345   0.45435
 Alpha virt. eigenvalues --    0.46307   0.46515   0.46696   0.47646   0.48260
 Alpha virt. eigenvalues --    0.49208   0.49575   0.50447   0.50585   0.50789
 Alpha virt. eigenvalues --    0.51607   0.52072   0.52561   0.53147   0.53391
 Alpha virt. eigenvalues --    0.53639   0.54264   0.55736   0.56556   0.57579
 Alpha virt. eigenvalues --    0.57808   0.58623   0.58842   0.59386   0.59710
 Alpha virt. eigenvalues --    0.60554   0.60663   0.61336   0.61665   0.61762
 Alpha virt. eigenvalues --    0.63006   0.63342   0.63779   0.64140   0.65594
 Alpha virt. eigenvalues --    0.66078   0.66583   0.67038   0.67441   0.67727
 Alpha virt. eigenvalues --    0.68015   0.68527   0.69491   0.69575   0.69646
 Alpha virt. eigenvalues --    0.69783   0.70225   0.70475   0.70786   0.70993
 Alpha virt. eigenvalues --    0.71473   0.71817   0.72144   0.72272   0.72756
 Alpha virt. eigenvalues --    0.72822   0.73010   0.73233   0.73641   0.74082
 Alpha virt. eigenvalues --    0.74669   0.74902   0.75046   0.75435   0.75678
 Alpha virt. eigenvalues --    0.76047   0.76624   0.76822   0.77075   0.77267
 Alpha virt. eigenvalues --    0.77601   0.78046   0.78880   0.79184   0.79488
 Alpha virt. eigenvalues --    0.79536   0.79981   0.80445   0.80978   0.81402
 Alpha virt. eigenvalues --    0.81755   0.82182   0.82375   0.82911   0.83121
 Alpha virt. eigenvalues --    0.83336   0.83595   0.83726   0.84156   0.84670
 Alpha virt. eigenvalues --    0.84884   0.85401   0.85633   0.85929   0.86253
 Alpha virt. eigenvalues --    0.86541   0.87093   0.87364   0.87677   0.87965
 Alpha virt. eigenvalues --    0.88099   0.88691   0.88922   0.89611   0.89829
 Alpha virt. eigenvalues --    0.90511   0.91274   0.91679   0.91887   0.92045
 Alpha virt. eigenvalues --    0.92185   0.93141   0.93284   0.94091   0.94274
 Alpha virt. eigenvalues --    0.94691   0.94880   0.95168   0.95608   0.95907
 Alpha virt. eigenvalues --    0.96112   0.96443   0.96634   0.97417   0.97855
 Alpha virt. eigenvalues --    0.98129   0.98592   0.98947   0.99305   0.99447
 Alpha virt. eigenvalues --    0.99655   0.99903   1.00278   1.00506   1.00839
 Alpha virt. eigenvalues --    1.01098   1.01410   1.01681   1.01804   1.02516
 Alpha virt. eigenvalues --    1.02699   1.02760   1.03314   1.03540   1.03617
 Alpha virt. eigenvalues --    1.03809   1.04275   1.04388   1.04608   1.04918
 Alpha virt. eigenvalues --    1.05083   1.05253   1.05553   1.05736   1.05968
 Alpha virt. eigenvalues --    1.06284   1.06563   1.06757   1.06992   1.07167
 Alpha virt. eigenvalues --    1.07218   1.07631   1.08092   1.08303   1.08609
 Alpha virt. eigenvalues --    1.08876   1.09078   1.09431   1.09602   1.09752
 Alpha virt. eigenvalues --    1.09999   1.10325   1.10565   1.11029   1.11235
 Alpha virt. eigenvalues --    1.11373   1.11780   1.12051   1.12516   1.13404
 Alpha virt. eigenvalues --    1.13680   1.13824   1.14318   1.14601   1.15487
 Alpha virt. eigenvalues --    1.15698   1.16318   1.16598   1.16809   1.16869
 Alpha virt. eigenvalues --    1.17263   1.17976   1.18417   1.18460   1.19203
 Alpha virt. eigenvalues --    1.20031   1.20507   1.20767   1.21034   1.21545
 Alpha virt. eigenvalues --    1.21767   1.22341   1.22595   1.22964   1.23071
 Alpha virt. eigenvalues --    1.23854   1.24353   1.24430   1.25087   1.25569
 Alpha virt. eigenvalues --    1.25804   1.25938   1.26509   1.27080   1.27469
 Alpha virt. eigenvalues --    1.27851   1.28224   1.28898   1.29194   1.29280
 Alpha virt. eigenvalues --    1.29618   1.29861   1.30821   1.31422   1.31535
 Alpha virt. eigenvalues --    1.32038   1.32071   1.33039   1.33680   1.34199
 Alpha virt. eigenvalues --    1.35476   1.35637   1.36547   1.37760   1.37915
 Alpha virt. eigenvalues --    1.39207   1.39419   1.39684   1.40184   1.41247
 Alpha virt. eigenvalues --    1.41700   1.42790   1.43461   1.43825   1.44883
 Alpha virt. eigenvalues --    1.45427   1.46159   1.46629   1.47269   1.48022
 Alpha virt. eigenvalues --    1.48257   1.49181   1.49542   1.50254   1.50753
 Alpha virt. eigenvalues --    1.51589   1.51893   1.52872   1.53320   1.53947
 Alpha virt. eigenvalues --    1.55263   1.55586   1.56263   1.56989   1.57207
 Alpha virt. eigenvalues --    1.57658   1.58570   1.59196   1.60053   1.60635
 Alpha virt. eigenvalues --    1.60931   1.61107   1.61849   1.63419   1.63644
 Alpha virt. eigenvalues --    1.63942   1.64526   1.64721   1.65248   1.66873
 Alpha virt. eigenvalues --    1.67844   1.68020   1.68634   1.69453   1.70648
 Alpha virt. eigenvalues --    1.70710   1.71455   1.71499   1.71961   1.72812
 Alpha virt. eigenvalues --    1.74593   1.75534   1.75876   1.77464   1.78291
 Alpha virt. eigenvalues --    1.79420   1.79785   1.80114   1.81135   1.82259
 Alpha virt. eigenvalues --    1.83363   1.83992   1.84497   1.84542   1.85367
 Alpha virt. eigenvalues --    1.86690   1.86741   1.88004   1.88494   1.88936
 Alpha virt. eigenvalues --    1.89002   1.90080   1.90331   1.91099   1.91710
 Alpha virt. eigenvalues --    1.91962   1.93110   1.93768   1.94245   1.95601
 Alpha virt. eigenvalues --    1.95924   1.96855   1.97582   1.98269   1.98496
 Alpha virt. eigenvalues --    1.98742   1.98910   1.99108   1.99712   2.00046
 Alpha virt. eigenvalues --    2.00336   2.00535   2.00842   2.01191   2.01743
 Alpha virt. eigenvalues --    2.01884   2.02325   2.02760   2.03122   2.03640
 Alpha virt. eigenvalues --    2.03896   2.04211   2.04578   2.05239   2.05533
 Alpha virt. eigenvalues --    2.05777   2.06623   2.06990   2.07152   2.07209
 Alpha virt. eigenvalues --    2.08256   2.08980   2.09217   2.09318   2.09600
 Alpha virt. eigenvalues --    2.09828   2.10764   2.10935   2.11260   2.11473
 Alpha virt. eigenvalues --    2.12014   2.12327   2.13424   2.14544   2.14603
 Alpha virt. eigenvalues --    2.14807   2.15660   2.15777   2.16251   2.16570
 Alpha virt. eigenvalues --    2.16977   2.18076   2.18271   2.18616   2.18741
 Alpha virt. eigenvalues --    2.19169   2.19487   2.19794   2.20375   2.21055
 Alpha virt. eigenvalues --    2.21125   2.22093   2.22188   2.22403   2.22819
 Alpha virt. eigenvalues --    2.23727   2.24436   2.25112   2.25652   2.25842
 Alpha virt. eigenvalues --    2.25977   2.26449   2.27444   2.27811   2.28307
 Alpha virt. eigenvalues --    2.28517   2.29503   2.30117   2.31027   2.31101
 Alpha virt. eigenvalues --    2.31273   2.31417   2.32191   2.33333   2.33516
 Alpha virt. eigenvalues --    2.33945   2.35001   2.35396   2.35819   2.36662
 Alpha virt. eigenvalues --    2.37187   2.37557   2.38136   2.38516   2.39014
 Alpha virt. eigenvalues --    2.39460   2.39591   2.40272   2.42719   2.42896
 Alpha virt. eigenvalues --    2.43335   2.43764   2.44540   2.45459   2.46412
 Alpha virt. eigenvalues --    2.46965   2.47329   2.48063   2.48736   2.49378
 Alpha virt. eigenvalues --    2.50458   2.50543   2.51243   2.51929   2.52659
 Alpha virt. eigenvalues --    2.53393   2.53727   2.54050   2.54259   2.54380
 Alpha virt. eigenvalues --    2.55406   2.55952   2.56512   2.56689   2.57859
 Alpha virt. eigenvalues --    2.58125   2.58417   2.58715   2.58889   2.59203
 Alpha virt. eigenvalues --    2.59744   2.60314   2.60481   2.60645   2.61316
 Alpha virt. eigenvalues --    2.61405   2.61661   2.62592   2.62843   2.63178
 Alpha virt. eigenvalues --    2.64048   2.64440   2.65798   2.66503   2.68497
 Alpha virt. eigenvalues --    2.69979   2.70164   2.70700   2.72396   2.72856
 Alpha virt. eigenvalues --    2.73212   2.73733   2.74862   2.76570   2.76989
 Alpha virt. eigenvalues --    2.77903   2.78385   2.79246   2.80355   2.82448
 Alpha virt. eigenvalues --    2.82594   2.83010   2.83370   2.84469   2.84932
 Alpha virt. eigenvalues --    2.85491   2.86118   2.86179   2.87114   2.87743
 Alpha virt. eigenvalues --    2.88637   2.88959   2.89446   2.89508   2.91164
 Alpha virt. eigenvalues --    2.91540   2.93833   2.94642   2.95583   2.95999
 Alpha virt. eigenvalues --    2.97897   2.98615   2.99315   3.02828   3.02880
 Alpha virt. eigenvalues --    3.06763   3.07048   3.08697   3.09473   3.09779
 Alpha virt. eigenvalues --    3.11484   3.13523   3.13734   3.15065   3.15466
 Alpha virt. eigenvalues --    3.16471   3.17192   3.18370   3.18627   3.20328
 Alpha virt. eigenvalues --    3.21064   3.23191   3.24260   3.32274   3.33094
 Alpha virt. eigenvalues --    3.33337   3.35326   3.35669   3.36669   3.37383
 Alpha virt. eigenvalues --    3.37981   3.41198   3.41979   4.12813   4.13322
 Alpha virt. eigenvalues --    4.14544   4.15236   4.16915   4.18253   4.19217
 Alpha virt. eigenvalues --    4.19474   4.20154   4.20512   4.22519   4.24156
 Alpha virt. eigenvalues --    4.25225   4.26372   4.28879   4.30283   4.31258
 Alpha virt. eigenvalues --    4.32523   4.32889   4.33121   4.34808   4.37390
 Alpha virt. eigenvalues --    4.37799   4.39406   4.39746   4.44320   4.46183
 Alpha virt. eigenvalues --    4.47699   4.48402   4.49329   4.49905   4.50433
 Alpha virt. eigenvalues --    4.52192   4.53649   4.54785   4.58366   4.61518
 Alpha virt. eigenvalues --    4.63059   4.64629   4.65655   4.66901   4.68482
 Alpha virt. eigenvalues --    4.70762   4.75040   4.78445   4.79571   4.85075
 Alpha virt. eigenvalues --    4.89032   4.90053   4.92556  47.56812
          Condensed to atoms (all electrons):
 Mulliken charges:
               1
     1  H    0.121071
     2  C   -0.530749
     3  C    0.611627
     4  O   -0.536352
     5  H    0.178600
     6  H    0.161760
     7  N   -0.572474
     8  C   -0.074641
     9  C    0.637342
    10  O   -0.592157
    11  C   -0.419509
    12  S   -0.379534
    13  H    0.313257
    14  H    0.237610
    15  H    0.166382
    16  H    0.142685
    17  N   -0.558748
    18  C   -0.283667
    19  H    0.158672
    20  H    0.126331
    21  H    0.380365
    22  H    0.149513
    23  H    0.135863
    24  C   -0.536145
    25  C    0.572728
    26  O   -0.549994
    27  H    0.175267
    28  H    0.177457
    29  N   -0.603104
    30  C   -0.021015
    31  C    0.622476
    32  O   -0.577260
    33  C   -0.409916
    34  S   -0.456693
    35  H    0.363611
    36  H    0.155055
    37  H    0.162828
    38  H    0.168841
    39  N   -0.623403
    40  C   -0.219535
    41  C    0.602928
    42  O   -0.556662
    43  H    0.405431
    44  H    0.186941
    45  H    0.181034
    46  N   -0.611209
    47  C   -0.220624
    48  C    0.613160
    49  O   -0.551959
    50  H    0.146538
    51  H    0.387928
    52  H    0.194525
    53  N   -0.610580
    54  C   -0.014858
    55  C    0.690243
    56  O   -0.518038
    57  C   -0.452836
    58  S   -0.423801
    59  H    0.366850
    60  H    0.126125
    61  H    0.123470
    62  H    0.217143
    63  N   -0.615027
    64  C   -0.230614
    65  C    0.610325
    66  O   -0.539048
    67  H    0.144542
    68  H    0.316997
    69  H    0.197477
    70  N   -0.570918
    71  C   -0.237168
    72  C    0.629088
    73  O   -0.555859
    74  H    0.334271
    75  H    0.160609
    76  H    0.200644
    77  N   -0.626722
    78  C    0.002961
    79  C    0.603087
    80  O   -0.578442
    81  C   -0.469697
    82  S   -0.377360
    83  H    0.399196
    84  H    0.170713
    85  H    0.205384
    86  H    0.168345
    87  N   -0.596637
    88  C   -0.274978
    89  H    0.152667
    90  H    0.133259
    91  H    0.397750
    92  H    0.148517
    93  Zn   0.440447
 Sum of Mulliken charges =  -2.00000
 Mulliken charges with hydrogens summed into heavy atoms:
               1
     2  C   -0.069318
     3  C    0.611627
     4  O   -0.536352
     7  N   -0.259217
     8  C    0.162968
     9  C    0.637342
    10  O   -0.592157
    11  C   -0.110441
    12  S   -0.379534
    17  N   -0.178382
    18  C    0.150849
    24  C   -0.047559
    25  C    0.572728
    26  O   -0.549994
    29  N   -0.239493
    30  C    0.134040
    31  C    0.622476
    32  O   -0.577260
    33  C   -0.078247
    34  S   -0.456693
    39  N   -0.217972
    40  C    0.148439
    41  C    0.602928
    42  O   -0.556662
    46  N   -0.223281
    47  C    0.120438
    48  C    0.613160
    49  O   -0.551959
    53  N   -0.243730
    54  C    0.111267
    55  C    0.690243
    56  O   -0.518038
    57  C   -0.112223
    58  S   -0.423801
    63  N   -0.298030
    64  C    0.111405
    65  C    0.610325
    66  O   -0.539048
    70  N   -0.236646
    71  C    0.124084
    72  C    0.629088
    73  O   -0.555859
    77  N   -0.227526
    78  C    0.173673
    79  C    0.603087
    80  O   -0.578442
    81  C   -0.095968
    82  S   -0.377360
    87  N   -0.198888
    88  C    0.159465
    93  Zn   0.440447
 DipInt: DoE/N= T F RetVal/Mat= T F Init=T NMatP=  1 IDeriv=0 Min/MaxMlt=  0  4
 Entering OneElI...
 OneElI was handed  1608613889 working-precision words.
 Multipole integrals L=0 to 4 MinM= 0 MaxM= 0.
 Requested accuracy = 0.1000D-12
 ShPair: Thresh= 1.00D-13 NBox=     0 BxSize= 0.00D+00 RnKept= 2.27D+01
         NSMCal=                43956 NSMKep=               26966
 PrmmSu-InSpLW:  IPartL=    0 NPrtUS=    1 NPrtUL=    1 DoSpLW=F IThBeg=    0 IThEnd=    0 NThAct=    1.
 PrsmSu:  NPrtUS=   1 ThrOK=F IAlg=1 NPAlg=1 LenDen=           0 ISkipM=0 DoSpLW=F IThBeg=    0 IThEnd=    0.
 Prism:   IPart=     0 DynPar=F LinDyn=F Incr=         269.
 PRISM was handed  1606215009 working-precision words and 26966 shell-pairs
 IPart=  0 NShTot=       26966 NBatch=         234 AvBLen=       115.2
 PrsmSu-ThDecC:  IPartSL=    0    0 NPrtUSL=    1    1 IThBeg=    0 IThEnd=    0 CPU=   -1 GPU=   -1 NThAct=    1.
 PrSmSu:  NxtVal=            270.
 Electronic moments (au):
       -444.00000000          2.06959688          3.20079647         -4.57177553
     -14183.77761570     -13550.08818517      -5393.95635978         -7.06356840
        -34.34740265         19.01051410      -6340.86665303     -25864.44849703
      -1095.42823383      14570.47839406      11483.61782141     -10896.42646865
      -8443.58872058       -290.94481395      -3566.82362807      -3649.63842198
   -1001682.33740753   -1094293.21265760    -147393.68058825     -68960.67903482
      49535.17689771      46241.87168856     -38198.17292411     -19734.32586374
      14435.74058171    -224155.01581900    -165134.22607058    -152901.23107280
      18336.74968147      -7115.71699801      23608.07701095
 Electronic spatial extent (au):  <R**2>=          33127.8222
 DipInt: DoE/N= F T RetVal/Mat= T F Init=T NMatP=  1 IDeriv=0 Min/MaxMlt=  0  4
 Nuclear    moments (au):
        442.00000000          0.00000000          0.00000000         -0.00000000
      13833.86693309      13206.75804834       5107.35963906          0.00000000
          0.00000000         -0.00000000       6591.31709298      26204.79841743
        808.38498573     -14396.06554656     -11282.39231827      10534.38007268
       8392.77325906        361.52419423       3616.99274220       3434.69092197
     944151.84298019    1039273.27180859     127138.78113190      66605.01772290
     -50166.42402252     -46196.31625235      40705.70296349      17961.15871780
     -14226.26735956     205271.75497280     152396.62085915     141344.38626097
     -17703.51246279       6585.30910019     -23365.96841974
 Total      moments (au):
         -2.00000000          2.06959688          3.20079647         -4.57177553
       -349.91068261       -343.33013683       -286.59672072         -7.06356840
        -34.34740265         19.01051410        250.45043995        340.34992040
       -287.04324810        174.41284750        201.22550314       -362.04639597
        -50.81546152         70.57938027         50.16911413       -214.94750002
     -57530.49442734     -55019.94084902     -20254.89945636      -2355.66131192
       -631.24712481         45.55543621       2507.53003937      -1773.16714594
        209.47322214     -18883.26084620     -12737.60521143     -11556.84481183
        633.23721868       -530.40789781        242.10859121
 Traceless Quadrup. (au):
        -23.29816923        -16.71762344         40.01579267         -7.06356840
        -34.34740265         19.01051410
 Charge=             -2.0000 electrons
 Dipole moment (field-independent basis, Debye):
    X=              5.2604    Y=              8.1356    Z=            -11.6203  Tot=             15.1291
 Quadrupole moment (field-independent basis, Debye-Ang):
   XX=           -470.6419   YY=           -461.7908   ZZ=           -385.4824
   XY=             -9.5007   XZ=            -46.1984   YZ=             25.5698
 Traceless Quadrupole moment (field-independent basis, Debye-Ang):
   XX=            -31.3368   YY=            -22.4858   ZZ=             53.8226
   XY=             -9.5007   XZ=            -46.1984   YZ=             25.5698
 Octapole moment (field-independent basis, Debye-Ang**2):
  XXX=            178.2610  YYY=            242.2480  ZZZ=           -204.3063  XYY=            124.1403
  XXY=            143.2246  XXZ=           -257.6907  XZZ=            -36.1685  YZZ=             50.2357
  YYZ=             35.7084  XYZ=           -152.9913
 Hexadecapole moment (field-independent basis, Debye-Ang**3):
 XXXX=         -21668.7429 YYYY=         -20723.1480 ZZZZ=          -7628.9664 XXXY=           -887.2550
 XXXZ=           -237.7579 YYYX=             17.1584 YYYZ=            944.4561 ZZZX=           -667.8598
 ZZZY=             78.8977 XXYY=          -7112.3415 XXZZ=          -4797.5929 YYZZ=          -4352.8619
 XXYZ=            238.5075 YYXZ=           -199.7770 ZZXY=             91.1897
 N-N= 1.035786500471D+04 E-N=-3.425162949598D+04  KE= 5.660262319519D+03
 Entering OneElI...
 OneElI was handed  1609011515 working-precision words.
 Calculate electrostatic properties
    NBasis =   886  MinDer = 0  MaxDer = 0
    NGrid  =    93  NMatD  =   1
 Requested accuracy = 0.1000D-12
 ShPair: Thresh= 1.00D-13 NBox=     0 BxSize= 0.00D+00 RnKept= 1.93D+01
         NSMCal=                43956 NSMKep=               20320
 PrmmSu-InSpLW:  IPartL=    0 NPrtUS=    8 NPrtUL=    1 DoSpLW=F IThBeg=    0 IThEnd=    7 NThAct=    8.
 PrsmSu:  NPrtUS=   8 ThrOK=T IAlg=1 NPAlg=1 LenDen=           0 ISkipM=0 DoSpLW=F IThBeg=    0 IThEnd=    7.
 Prism:   IPart=     0 DynPar=F LinDyn=F Incr=         512.
 PRISM was handed   200412342 working-precision words and 20320 shell-pairs
 PRISM was handed   200412342 working-precision words and 20320 shell-pairs
 PRISM was handed   200412342 working-precision words and 20320 shell-pairs
 PRISM was handed   200412342 working-precision words and 20320 shell-pairs
 PRISM was handed   200412342 working-precision words and 20320 shell-pairs
 PRISM was handed   200412342 working-precision words and 20320 shell-pairs
 PRISM was handed   200412342 working-precision words and 20320 shell-pairs
 PRISM was handed   200412342 working-precision words and 20320 shell-pairs
 IPart=  7 NShTot=      233337 NBatch=        2576 AvBLen=        90.6
 PrsmSu-ThDecC:  IPartSL=    7    0 NPrtUSL=    8    1 IThBeg=    0 IThEnd=    7 CPU=   -1 GPU=   -1 NThAct=    8.
 IPart=  6 NShTot=      233988 NBatch=        2586 AvBLen=        90.5
 PrsmSu-ThDecC:  IPartSL=    6    0 NPrtUSL=    8    1 IThBeg=    0 IThEnd=    7 CPU=   -1 GPU=   -1 NThAct=    7.
 IPart=  5 NShTot=      235011 NBatch=        2599 AvBLen=        90.4
 PrsmSu-ThDecC:  IPartSL=    5    0 NPrtUSL=    8    1 IThBeg=    0 IThEnd=    7 CPU=   -1 GPU=   -1 NThAct=    6.
 IPart=  4 NShTot=      235848 NBatch=        2609 AvBLen=        90.4
 PrsmSu-ThDecC:  IPartSL=    4    0 NPrtUSL=    8    1 IThBeg=    0 IThEnd=    7 CPU=   -1 GPU=   -1 NThAct=    5.
 IPart=  3 NShTot=      236499 NBatch=        2617 AvBLen=        90.4
 PrsmSu-ThDecC:  IPartSL=    3    0 NPrtUSL=    8    1 IThBeg=    0 IThEnd=    7 CPU=   -1 GPU=   -1 NThAct=    4.
 IPart=  1 NShTot=      238173 NBatch=        2638 AvBLen=        90.3
 PrsmSu-ThDecC:  IPartSL=    1    0 NPrtUSL=    8    1 IThBeg=    0 IThEnd=    7 CPU=   -1 GPU=   -1 NThAct=    3.
 IPart=  2 NShTot=      237243 NBatch=        2626 AvBLen=        90.3
 PrsmSu-ThDecC:  IPartSL=    2    0 NPrtUSL=    8    1 IThBeg=    0 IThEnd=    7 CPU=   -1 GPU=   -1 NThAct=    2.
 IPart=  0 NShTot=      239661 NBatch=        2664 AvBLen=        90.0
 PrsmSu-ThDecC:  IPartSL=    0    0 NPrtUSL=    8    1 IThBeg=    0 IThEnd=    7 CPU=   -1 GPU=   -1 NThAct=    1.
 PrSmSu:  NxtVal=           4097.
 --------------------------------------------------------
       Center         ----      EFG at Nuclei      ----
                      3XX-RR        3YY-RR        3ZZ-RR
 --------------------------------------------------------
     1   Atom       -0.209530      0.104340      0.105190
     2   Atom        0.004555     -0.006201      0.001646
     3   Atom        0.133427      0.010228     -0.143656
     4   Atom       -0.111165      0.162575     -0.051410
     5   Atom       -0.006344      0.129331     -0.122987
     6   Atom        0.063210     -0.097461      0.034250
     7   Atom       -0.427813      0.101008      0.326805
     8   Atom        0.185258     -0.100379     -0.084879
     9   Atom       -0.091512     -0.070279      0.161791
    10   Atom       -0.271620     -0.734840      1.006460
    11   Atom        0.010550     -0.049435      0.038886
    12   Atom        0.990504     -1.269689      0.279185
    13   Atom       -0.174561      0.065150      0.109411
    14   Atom       -0.070348     -0.049807      0.120155
    15   Atom        0.143541      0.108171     -0.251712
    16   Atom       -0.111817     -0.020307      0.132124
    17   Atom        0.152863      0.248952     -0.401815
    18   Atom        0.086779      0.094444     -0.181223
    19   Atom       -0.066130      0.098245     -0.032114
    20   Atom       -0.214557      0.120753      0.093804
    21   Atom       -0.002595     -0.081327      0.083922
    22   Atom        0.155277     -0.294023      0.138746
    23   Atom       -0.251503      0.149582      0.101921
    24   Atom        0.023914     -0.023807     -0.000108
    25   Atom       -0.152657      0.177777     -0.025120
    26   Atom       -0.444159     -0.060349      0.504508
    27   Atom       -0.002031      0.145844     -0.143813
    28   Atom        0.135987     -0.133408     -0.002579
    29   Atom        0.337331     -0.302068     -0.035264
    30   Atom        0.151029     -0.156102      0.005072
    31   Atom       -0.022337      0.219616     -0.197279
    32   Atom        0.763849     -0.736871     -0.026978
    33   Atom       -0.133070      0.093950      0.039120
    34   Atom       -1.791101      0.626513      1.164588
    35   Atom        0.025530     -0.130075      0.104545
    36   Atom       -0.235626      0.092061      0.143565
    37   Atom        0.145013     -0.196290      0.051276
    38   Atom       -0.017525     -0.027094      0.044620
    39   Atom       -0.107377     -0.272101      0.379479
    40   Atom       -0.008267     -0.010459      0.018725
    41   Atom       -0.034480     -0.019264      0.053743
    42   Atom       -0.174719     -0.699032      0.873751
    43   Atom        0.132727     -0.321946      0.189219
    44   Atom        0.031694      0.048451     -0.080145
    45   Atom        0.004275     -0.077523      0.073248
    46   Atom        0.267599      0.084364     -0.351964
    47   Atom        0.010909      0.051487     -0.062396
    48   Atom        0.189889      0.065145     -0.255034
    49   Atom       -0.816884      1.106042     -0.289158
    50   Atom        0.018244      0.077244     -0.095488
    51   Atom        0.041483     -0.150492      0.109009
    52   Atom        0.004932     -0.081313      0.076381
    53   Atom       -0.269505     -0.357700      0.627205
    54   Atom       -0.011494     -0.041385      0.052879
    55   Atom        0.099329     -0.268818      0.169489
    56   Atom        1.157823     -0.263583     -0.894240
    57   Atom        0.099773     -0.048139     -0.051634
    58   Atom        0.852737      0.298374     -1.151111
    59   Atom       -0.313750      0.122612      0.191138
    60   Atom        0.109776      0.111465     -0.221241
    61   Atom        0.033611     -0.010897     -0.022714
    62   Atom       -0.202846      0.124602      0.078245
    63   Atom       -0.307356      0.644320     -0.336965
    64   Atom       -0.185774      0.154653      0.031121
    65   Atom       -0.091445     -0.060482      0.151927
    66   Atom       -0.256030      0.650729     -0.394699
    67   Atom       -0.076085      0.091895     -0.015809
    68   Atom        0.165730      0.158908     -0.324638
    69   Atom        0.078109     -0.188352      0.110243
    70   Atom        0.226295      0.075591     -0.301886
    71   Atom        0.141631     -0.026421     -0.115211
    72   Atom       -0.100957     -0.098980      0.199938
    73   Atom        0.161486      0.352890     -0.514375
    74   Atom        0.046790      0.171989     -0.218779
    75   Atom       -0.163836      0.047649      0.116187
    76   Atom       -0.054500     -0.050539      0.105038
    77   Atom        0.173106      0.122595     -0.295702
    78   Atom        0.054072     -0.026526     -0.027546
    79   Atom       -0.027238     -0.122466      0.149704
    80   Atom        0.655046      0.173110     -0.828156
    81   Atom       -0.120885      0.000788      0.120097
    82   Atom       -1.188158      0.544275      0.643883
    83   Atom        0.115288      0.170119     -0.285406
    84   Atom        0.105291      0.004821     -0.110111
    85   Atom        0.114068      0.059234     -0.173303
    86   Atom        0.117064     -0.068448     -0.048617
    87   Atom       -0.062672      0.335080     -0.272408
    88   Atom       -0.083341     -0.018119      0.101460
    89   Atom       -0.028925      0.057755     -0.028830
    90   Atom        0.037620      0.108721     -0.146341
    91   Atom        0.165270      0.152569     -0.317839
    92   Atom        0.083192     -0.154549      0.071357
    93   Atom        0.085506     -0.193926      0.108419
 --------------------------------------------------------
                        XY            XZ            YZ
 --------------------------------------------------------
     1   Atom        0.123007      0.126926     -0.051066
     2   Atom        0.002761      0.014688     -0.027250
     3   Atom       -0.034559     -0.020235      0.254620
     4   Atom        0.992058      0.674046      0.619933
     5   Atom        0.055208     -0.206735      0.072271
     6   Atom       -0.149339      0.101867      0.167901
     7   Atom       -0.004728      0.069418     -0.634818
     8   Atom       -0.083199     -0.024724     -0.205634
     9   Atom       -0.222495     -0.086919     -0.168592
    10   Atom        0.169305     -0.841611      0.137593
    11   Atom       -0.049579      0.028533     -0.095851
    12   Atom        0.158819     -0.258994     -1.835831
    13   Atom        0.199432      0.178542     -0.140287
    14   Atom        0.203696     -0.040586      0.033184
    15   Atom       -0.013713      0.032138      0.123298
    16   Atom        0.205018     -0.069896      0.052306
    17   Atom        0.478869      0.301563      0.292131
    18   Atom       -0.020966      0.059700      0.104878
    19   Atom       -0.110465     -0.192290     -0.093473
    20   Atom        0.111215      0.132190     -0.033715
    21   Atom        0.247551     -0.090382      0.153111
    22   Atom        0.011415     -0.000205      0.015184
    23   Atom        0.015828      0.138229     -0.008116
    24   Atom        0.031409     -0.000073     -0.050037
    25   Atom        0.140304     -0.206961      0.094135
    26   Atom       -0.564996     -0.496822      0.971735
    27   Atom        0.011770     -0.214283      0.013309
    28   Atom       -0.059165      0.043023      0.201938
    29   Atom       -0.171288      0.473845     -0.334875
    30   Atom        0.041639     -0.017208     -0.144359
    31   Atom       -0.000507      0.224353     -0.083681
    32   Atom       -0.572007      0.858979     -0.262527
    33   Atom       -0.109954      0.030143      0.013226
    34   Atom       -1.190818      0.238181     -0.257416
    35   Atom       -0.224385      0.125954      0.116371
    36   Atom       -0.131411     -0.037227     -0.016579
    37   Atom       -0.010566     -0.002971     -0.181715
    38   Atom        0.168774     -0.127334      0.135048
    39   Atom        0.025567     -0.582887      0.189992
    40   Atom        0.186946     -0.083748      0.102674
    41   Atom       -0.286074     -0.133993     -0.070856
    42   Atom        0.098293     -0.931964      0.218689
    43   Atom       -0.123525     -0.031826      0.001269
    44   Atom       -0.098626     -0.163537     -0.146850
    45   Atom       -0.167988      0.103972      0.132397
    46   Atom        0.500733      0.413055      0.170729
    47   Atom        0.019705      0.185998     -0.102581
    48   Atom        0.007324     -0.137114     -0.160210
    49   Atom        0.407053     -0.176567     -0.772042
    50   Atom       -0.097786     -0.170881     -0.135600
    51   Atom        0.237691     -0.053259      0.127524
    52   Atom        0.177258     -0.091342      0.118779
    53   Atom       -0.025458      0.280861      0.462800
    54   Atom       -0.149995      0.058235      0.083882
    55   Atom        0.141963      0.145697     -0.109574
    56   Atom        0.726504      0.225629      0.193525
    57   Atom        0.078031      0.039380     -0.051799
    58   Atom        0.043963      0.818243     -1.745532
    59   Atom        0.105681      0.091453      0.010890
    60   Atom        0.025460      0.115306     -0.111901
    61   Atom       -0.131256      0.144196      0.167723
    62   Atom       -0.071478     -0.150179     -0.029633
    63   Atom       -0.437829     -0.224526      0.395691
    64   Atom       -0.065516     -0.155818     -0.070612
    65   Atom       -0.183897      0.128765      0.110778
    66   Atom       -0.659271     -0.563166      0.859956
    67   Atom       -0.121769      0.181260      0.099629
    68   Atom       -0.011148     -0.044480      0.184631
    69   Atom        0.142525     -0.052367      0.107285
    70   Atom        0.570262     -0.249960     -0.280400
    71   Atom        0.034360      0.093674     -0.214298
    72   Atom        0.214286      0.048347     -0.063794
    73   Atom        0.895511     -0.640003     -0.607932
    74   Atom        0.069038     -0.249762      0.047243
    75   Atom       -0.176712     -0.085724     -0.059233
    76   Atom        0.200943     -0.076924      0.070999
    77   Atom       -0.607210     -0.099902      0.225065
    78   Atom       -0.078003      0.083852      0.204747
    79   Atom       -0.260658      0.005395     -0.118160
    80   Atom       -0.986969     -0.311304      0.277457
    81   Atom        0.053340     -0.080025      0.016375
    82   Atom        1.547258     -0.746984      0.292301
    83   Atom       -0.053439     -0.174275     -0.035824
    84   Atom        0.073030      0.107564     -0.180059
    85   Atom        0.043150      0.086998     -0.166540
    86   Atom       -0.078112      0.068434      0.209519
    87   Atom        0.692009      0.090658      0.132082
    88   Atom        0.177108     -0.059884      0.041794
    89   Atom       -0.117500     -0.182053     -0.127315
    90   Atom        0.075580      0.175493     -0.107561
    91   Atom        0.049574     -0.036343      0.141837
    92   Atom       -0.128894      0.067514      0.160408
    93   Atom       -0.023370      0.085590     -0.046724
 --------------------------------------------------------


 ---------------------------------------------------------------------------------
              Nuclear Quadrupole Coupling Constant in Principal Axis System
 ---------------------------------------------------------------------------------

       Atom             a.u.   MegaHertz   Gauss  10(-4) cm-1        Axes

              Baa    -0.4715     2.264     0.808     0.755  0.7039 -0.5249 -0.4786
     7 N(14)  Bbb    -0.3897     1.871     0.668     0.624  0.7090  0.5605  0.4279
              Bcc     0.8611    -4.136    -1.476    -1.380  0.0436 -0.6406  0.7667
 
              Baa    -0.5474     2.629     0.938     0.877 -0.2876 -0.1726  0.9421
    17 N(14)  Bbb    -0.2779     1.335     0.476     0.445  0.7118 -0.6967  0.0897
              Bcc     0.8253    -3.964    -1.414    -1.322  0.6408  0.6963  0.3233
 
              Baa    -0.5560     2.670     0.953     0.891 -0.2093  0.7247  0.6565
    29 N(14)  Bbb    -0.2092     1.005     0.358     0.335  0.6162  0.6190 -0.4869
              Bcc     0.7651    -3.675    -1.311    -1.226  0.7593 -0.3026  0.5761
 
              Baa    -0.5555     2.668     0.952     0.890  0.7258 -0.4270  0.5393
    39 N(14)  Bbb    -0.2320     1.114     0.398     0.372  0.4287  0.8939  0.1309
              Bcc     0.7875    -3.782    -1.350    -1.262 -0.5380  0.1362  0.8319
 
              Baa    -0.5714     2.744     0.979     0.915 -0.5180  0.1777  0.8367
    46 N(14)  Bbb    -0.2683     1.289     0.460     0.430 -0.4179  0.8009 -0.4288
              Bcc     0.8397    -4.033    -1.439    -1.345  0.7464  0.5718  0.3406
 
              Baa    -0.5980     2.872     1.025     0.958  0.4080  0.8192 -0.4030
    53 N(14)  Bbb    -0.2689     1.291     0.461     0.431  0.8865 -0.4610 -0.0397
              Bcc     0.8669    -4.163    -1.486    -1.389  0.2183  0.3410  0.9143
 
              Baa    -0.5474     2.629     0.938     0.877  0.7066  0.0248  0.7072
    63 N(14)  Bbb    -0.4231     2.032     0.725     0.678 -0.6109 -0.4831  0.6273
              Bcc     0.9705    -4.661    -1.663    -1.555 -0.3572  0.8752  0.3262
 
              Baa    -0.4675     2.245     0.801     0.749 -0.3132  0.6742  0.6688
    70 N(14)  Bbb    -0.3798     1.824     0.651     0.608  0.6332 -0.3766  0.6762
              Bcc     0.8473    -4.069    -1.452    -1.357  0.7078  0.6353 -0.3090
 
              Baa    -0.5101     2.450     0.874     0.817  0.5461  0.6920 -0.4721
    77 N(14)  Bbb    -0.2931     1.408     0.502     0.470  0.4664  0.2170  0.8575
              Bcc     0.8031    -3.857    -1.376    -1.287  0.6959 -0.6885 -0.2043
 
              Baa    -0.5840     2.805     1.001     0.936  0.7970 -0.6035  0.0240
    87 N(14)  Bbb    -0.2945     1.414     0.505     0.472 -0.1021 -0.0955  0.9902
              Bcc     0.8785    -4.219    -1.505    -1.407  0.5953  0.7916  0.1377
 

 ---------------------------------------------------------------------------------

 No NMR shielding tensors so no spin-rotation constants.
 Leave Link  601 at Thu Mar 25 18:10:30 2021, MaxMem=  1610612736 cpu:               4.8 elap:               0.7
 FitSet:  NAtFit=    93 NAtPot=    93 NAtFrz=     0 MDM=    97 TotChg=  -2.00000
 Merz-Kollman atomic radii used.
 Read replacement radii for each type of atom:
 Rad(30) =   1.373000000000D+00
 Atom Element Radius
    1     1    1.20
    2     6    1.50
    3     6    1.50
    4     8    1.40
    5     1    1.20
    6     1    1.20
    7     7    1.50
    8     6    1.50
    9     6    1.50
   10     8    1.40
   11     6    1.50
   12    16    1.75
   13     1    1.20
   14     1    1.20
   15     1    1.20
   16     1    1.20
   17     7    1.50
   18     6    1.50
   19     1    1.20
   20     1    1.20
   21     1    1.20
   22     1    1.20
   23     1    1.20
   24     6    1.50
   25     6    1.50
   26     8    1.40
   27     1    1.20
   28     1    1.20
   29     7    1.50
   30     6    1.50
   31     6    1.50
   32     8    1.40
   33     6    1.50
   34    16    1.75
   35     1    1.20
   36     1    1.20
   37     1    1.20
   38     1    1.20
   39     7    1.50
   40     6    1.50
   41     6    1.50
   42     8    1.40
   43     1    1.20
   44     1    1.20
   45     1    1.20
   46     7    1.50
   47     6    1.50
   48     6    1.50
   49     8    1.40
   50     1    1.20
   51     1    1.20
   52     1    1.20
   53     7    1.50
   54     6    1.50
   55     6    1.50
   56     8    1.40
   57     6    1.50
   58    16    1.75
   59     1    1.20
   60     1    1.20
   61     1    1.20
   62     1    1.20
   63     7    1.50
   64     6    1.50
   65     6    1.50
   66     8    1.40
   67     1    1.20
   68     1    1.20
   69     1    1.20
   70     7    1.50
   71     6    1.50
   72     6    1.50
   73     8    1.40
   74     1    1.20
   75     1    1.20
   76     1    1.20
   77     7    1.50
   78     6    1.50
   79     6    1.50
   80     8    1.40
   81     6    1.50
   82    16    1.75
   83     1    1.20
   84     1    1.20
   85     1    1.20
   86     1    1.20
   87     7    1.50
   88     6    1.50
   89     1    1.20
   90     1    1.20
   91     1    1.20
   92     1    1.20
   93    30    1.37
 Generate VDW surfaces: Layer= 4 Dens= 6 Start= 1.400 Inc= 0.200

 **********************************************************************

            Electrostatic Properties Using The SCF Density

 **********************************************************************

       Atomic Center    1 is at  -1.042989  7.050161  2.681741
       Atomic Center    2 is at  -0.068682  6.707814  2.331721
       Atomic Center    3 is at  -0.229875  5.496698  1.410728
       Atomic Center    4 is at   0.770197  4.887773  0.999215
       Atomic Center    5 is at   0.581642  6.482243  3.176551
       Atomic Center    6 is at   0.421902  7.509689  1.780984
       Atomic Center    7 is at  -1.465710  5.103673  1.120645
       Atomic Center    8 is at  -1.658074  3.993975  0.203194
       Atomic Center    9 is at  -1.577058  4.562203 -1.212125
       Atomic Center   10 is at  -2.318892  5.469140 -1.594480
       Atomic Center   11 is at  -2.981500  3.261850  0.404099
       Atomic Center   12 is at  -3.114806  1.799636 -0.676611
       Atomic Center   13 is at  -2.254100  5.577394  1.538208
       Atomic Center   14 is at  -0.877424  3.249545  0.363811
       Atomic Center   15 is at  -3.060906  2.931205  1.439869
       Atomic Center   16 is at  -3.808156  3.934183  0.174031
       Atomic Center   17 is at  -0.633305  4.034874 -1.981052
       Atomic Center   18 is at  -0.436740  4.500842 -3.340781
       Atomic Center   19 is at  -1.203303  4.120935 -4.016242
       Atomic Center   20 is at   0.553025  4.207602 -3.691544
       Atomic Center   21 is at  -0.043302  3.300112 -1.618598
       Atomic Center   22 is at  -0.474709  5.589552 -3.361271
       Atomic Center   23 is at  -6.210523  0.610837  2.618477
       Atomic Center   24 is at  -5.179486  0.588625  2.266893
       Atomic Center   25 is at  -5.142253 -0.764769  1.514379
       Atomic Center   26 is at  -5.815089 -1.703564  1.934797
       Atomic Center   27 is at  -4.541793  0.535827  3.149757
       Atomic Center   28 is at  -4.996481  1.446685  1.620528
       Atomic Center   29 is at  -4.392258 -0.897873  0.420354
       Atomic Center   30 is at  -4.391423 -2.195366 -0.280237
       Atomic Center   31 is at  -3.590488 -3.298189  0.429280
       Atomic Center   32 is at  -3.947357 -4.478959  0.370552
       Atomic Center   33 is at  -3.919762 -2.033879 -1.726339
       Atomic Center   34 is at  -2.226342 -1.392821 -1.889723
       Atomic Center   35 is at  -3.842216 -0.117969  0.090542
       Atomic Center   36 is at  -5.414998 -2.557025 -0.376293
       Atomic Center   37 is at  -3.945104 -3.001273 -2.228212
       Atomic Center   38 is at  -4.576874 -1.338320 -2.248258
       Atomic Center   39 is at  -2.495664 -2.916257  1.086313
       Atomic Center   40 is at  -1.645643 -3.882512  1.788035
       Atomic Center   41 is at  -0.626322 -4.581489  0.899108
       Atomic Center   42 is at   0.037347 -5.507776  1.344142
       Atomic Center   43 is at  -2.237745 -1.940364  1.106704
       Atomic Center   44 is at  -1.087600 -3.372979  2.573247
       Atomic Center   45 is at  -2.267938 -4.660374  2.231549
       Atomic Center   46 is at  -0.478825 -4.087119 -0.331024
       Atomic Center   47 is at   0.417187 -4.634882 -1.344085
       Atomic Center   48 is at   1.371505 -3.606156 -1.952772
       Atomic Center   49 is at   2.550810 -3.903895 -2.104655
       Atomic Center   50 is at  -0.170377 -5.080709 -2.146588
       Atomic Center   51 is at  -1.011018 -3.275938 -0.613683
       Atomic Center   52 is at   1.030087 -5.419680 -0.901100
       Atomic Center   53 is at   0.879689 -2.415231 -2.296899
       Atomic Center   54 is at   1.719340 -1.371677 -2.900513
       Atomic Center   55 is at   2.960164 -1.144049 -2.052008
       Atomic Center   56 is at   2.979388 -1.516180 -0.871985
       Atomic Center   57 is at   0.949130 -0.049006 -3.063474
       Atomic Center   58 is at   0.674543  0.929147 -1.520647
       Atomic Center   59 is at  -0.097418 -2.211962 -2.143420
       Atomic Center   60 is at   2.022609 -1.681846 -3.900520
       Atomic Center   61 is at   1.493389  0.606961 -3.742703
       Atomic Center   62 is at  -0.041550 -0.252751 -3.470144
       Atomic Center   63 is at   3.985351 -0.518057 -2.625411
       Atomic Center   64 is at   5.233244 -0.285746 -1.882934
       Atomic Center   65 is at   5.071696  0.570084 -0.619773
       Atomic Center   66 is at   5.744617  0.340080  0.399510
       Atomic Center   67 is at   6.015941  0.114875 -2.527068
       Atomic Center   68 is at   3.907627 -0.198409 -3.580036
       Atomic Center   69 is at   5.651606 -1.241208 -1.566222
       Atomic Center   70 is at   4.159227  1.538584 -0.684903
       Atomic Center   71 is at   3.903274  2.417615  0.449296
       Atomic Center   72 is at   3.415469  1.625213  1.632738
       Atomic Center   73 is at   3.871930  1.834461  2.753998
       Atomic Center   74 is at   3.629359  1.672794 -1.534668
       Atomic Center   75 is at   4.823032  2.933200  0.724622
       Atomic Center   76 is at   3.143736  3.150953  0.177759
       Atomic Center   77 is at   2.469292  0.723480  1.382905
       Atomic Center   78 is at   1.931876 -0.137832  2.437417
       Atomic Center   79 is at   3.025258 -1.076552  2.923475
       Atomic Center   80 is at   3.082684 -1.381716  4.111681
       Atomic Center   81 is at   0.735163 -0.956120  1.924104
       Atomic Center   82 is at  -0.784456  0.001508  1.612039
       Atomic Center   83 is at   2.105828  0.623485  0.445539
       Atomic Center   84 is at   1.583096  0.476935  3.267248
       Atomic Center   85 is at   0.998740 -1.433849  0.980722
       Atomic Center   86 is at   0.474951 -1.719845  2.656870
       Atomic Center   87 is at   3.874505 -1.547166  2.006961
       Atomic Center   88 is at   4.969460 -2.449902  2.368388
       Atomic Center   89 is at   5.641773 -1.954624  3.069077
       Atomic Center   90 is at   5.504280 -2.790657  1.481490
       Atomic Center   91 is at   3.767035 -1.279442  1.039335
       Atomic Center   92 is at   4.562194 -3.347894  2.833940
       Atomic Center   93 is at  -1.332744  0.278813 -0.634376
      ESP Fit Center   94 is at  -1.042989  7.050161  4.361741
      ESP Fit Center   95 is at  -0.825581  7.426723  4.304496
      ESP Fit Center   96 is at  -1.260397  7.426723  4.304496
      ESP Fit Center   97 is at  -1.477805  7.050161  4.304496
      ESP Fit Center   98 is at  -1.260397  6.673600  4.304496
      ESP Fit Center   99 is at  -0.825581  6.673600  4.304496
      ESP Fit Center  100 is at  -0.622989  7.777623  4.136663
      ESP Fit Center  101 is at  -1.042989  7.890161  4.136663
      ESP Fit Center  102 is at  -1.462989  7.777623  4.136663
      ESP Fit Center  103 is at  -1.770450  7.470161  4.136663
      ESP Fit Center  104 is at  -1.882989  7.050161  4.136663
      ESP Fit Center  105 is at  -1.770450  6.630161  4.136663
      ESP Fit Center  106 is at  -1.462989  6.322700  4.136663
      ESP Fit Center  107 is at  -1.042989  6.210161  4.136663
      ESP Fit Center  108 is at  -0.513479  8.113561  3.869680
      ESP Fit Center  109 is at  -0.933380  8.233033  3.869680
      ESP Fit Center  110 is at  -1.368084  8.192752  3.869680
      ESP Fit Center  111 is at  -1.758883  7.998157  3.869680
      ESP Fit Center  112 is at  -2.052996  7.675531  3.869680
      ESP Fit Center  113 is at  -2.210702  7.268445  3.869680
      ESP Fit Center  114 is at  -2.210702  6.831878  3.869680
      ESP Fit Center  115 is at  -2.052996  6.424792  3.869680
      ESP Fit Center  116 is at  -1.758883  6.102165  3.869680
      ESP Fit Center  117 is at  -1.368084  5.907571  3.869680
      ESP Fit Center  118 is at  -0.511446  8.404511  3.521741
      ESP Fit Center  119 is at  -0.934263  8.501016  3.521741
      ESP Fit Center  120 is at  -1.366740  8.468606  3.521741
      ESP Fit Center  121 is at  -1.770450  8.310161  3.521741
      ESP Fit Center  122 is at  -2.109523  8.039760  3.521741
      ESP Fit Center  123 is at  -2.353829  7.681429  3.521741
      ESP Fit Center  124 is at  -2.481661  7.267006  3.521741
      ESP Fit Center  125 is at  -2.481661  6.833316  3.521741
      ESP Fit Center  126 is at  -2.353829  6.418894  3.521741
      ESP Fit Center  127 is at  -2.109523  6.060562  3.521741
      ESP Fit Center  128 is at  -1.770450  5.790161  3.521741
      ESP Fit Center  129 is at  -0.622989  8.617623  3.116557
      ESP Fit Center  130 is at  -1.042989  8.672917  3.116557
      ESP Fit Center  131 is at  -1.462989  8.617623  3.116557
      ESP Fit Center  132 is at  -1.854367  8.455509  3.116557
      ESP Fit Center  133 is at  -2.190450  8.197623  3.116557
      ESP Fit Center  134 is at  -2.448336  7.861539  3.116557
      ESP Fit Center  135 is at  -2.610450  7.470161  3.116557
      ESP Fit Center  136 is at  -2.665744  7.050161  3.116557
      ESP Fit Center  137 is at  -2.610450  6.630161  3.116557
      ESP Fit Center  138 is at  -2.448336  6.238784  3.116557
      ESP Fit Center  139 is at  -0.937501  8.726846  2.681741
      ESP Fit Center  140 is at  -1.357790  8.700404  2.681741
      ESP Fit Center  141 is at  -1.758298  8.570271  2.681741
      ESP Fit Center  142 is at  -2.113861  8.344623  2.681741
      ESP Fit Center  143 is at  -2.402138  8.037640  2.681741
      ESP Fit Center  144 is at  -2.605014  7.668610  2.681741
      ESP Fit Center  145 is at  -2.709742  7.260721  2.681741
      ESP Fit Center  146 is at  -2.709742  6.839601  2.681741
      ESP Fit Center  147 is at  -1.042989  8.672917  2.246925
      ESP Fit Center  148 is at  -1.462989  8.617623  2.246925
      ESP Fit Center  149 is at  -1.854367  8.455509  2.246925
      ESP Fit Center  150 is at  -2.190450  8.197623  2.246925
      ESP Fit Center  151 is at  -2.448336  7.861539  2.246925
      ESP Fit Center  152 is at  -2.610450  7.470161  2.246925
      ESP Fit Center  153 is at  -2.665744  7.050161  2.246925
      ESP Fit Center  154 is at  -1.366740  8.468606  1.841741
      ESP Fit Center  155 is at  -1.770450  8.310161  1.841741
      ESP Fit Center  156 is at  -2.109523  8.039760  1.841741
      ESP Fit Center  157 is at  -2.353829  7.681429  1.841741
      ESP Fit Center  158 is at  -2.481661  7.267006  1.841741
      ESP Fit Center  159 is at  -1.368084  8.192752  1.493801
      ESP Fit Center  160 is at  -1.758883  7.998157  1.493801
      ESP Fit Center  161 is at  -2.052996  7.675531  1.493801
      ESP Fit Center  162 is at  -2.210702  7.268445  1.493801
      ESP Fit Center  163 is at  -1.770450  7.470161  1.226818
      ESP Fit Center  164 is at  -0.470499  7.403783  4.271868
      ESP Fit Center  165 is at  -0.764650  6.305997  4.271868
      ESP Fit Center  166 is at   0.038968  7.869535  4.077807
      ESP Fit Center  167 is at  -0.387964  7.829974  4.077807
      ESP Fit Center  168 is at  -1.060628  6.093627  4.077807
      ESP Fit Center  169 is at  -0.771774  5.776770  4.077807
      ESP Fit Center  170 is at   0.548178  8.058549  3.816645
      ESP Fit Center  171 is at   0.142645  8.177624  3.816645
      ESP Fit Center  172 is at  -0.280008  8.177624  3.816645
      ESP Fit Center  173 is at  -1.041100  5.585583  3.816645
      ESP Fit Center  174 is at  -0.685542  5.357080  3.816645
      ESP Fit Center  175 is at   0.923208  8.144815  3.498418
      ESP Fit Center  176 is at   0.550489  8.340433  3.498418
      ESP Fit Center  177 is at   0.141786  8.441170  3.498418
      ESP Fit Center  178 is at  -0.279149  8.441170  3.498418
      ESP Fit Center  179 is at  -1.375646  5.549945  3.498418
      ESP Fit Center  180 is at  -1.060572  5.270814  3.498418
      ESP Fit Center  181 is at  -0.687852  5.075195  3.498418
      ESP Fit Center  182 is at  -0.279149  4.974459  3.498418
      ESP Fit Center  183 is at   1.187343  8.186521  3.135356
      ESP Fit Center  184 is at   0.840100  8.421958  3.135356
      ESP Fit Center  185 is at   0.450363  8.577243  3.135356
      ESP Fit Center  186 is at   0.036356  8.645116  3.135356
      ESP Fit Center  187 is at  -0.382563  8.622403  3.135356
      ESP Fit Center  188 is at  -0.173001  8.764820  2.741411
      ESP Fit Center  189 is at  -0.584938  8.701713  2.741411
      ESP Fit Center  190 is at   2.031318  6.707814  2.331721
      ESP Fit Center  191 is at   1.990967  7.117504  2.331721
      ESP Fit Center  192 is at   1.990967  6.707814  1.922031
      ESP Fit Center  193 is at  -0.975739  8.556977  1.922031
      ESP Fit Center  194 is at   1.948806  6.293210  1.922031
      ESP Fit Center  195 is at  -1.157467  8.313653  1.528086
      ESP Fit Center  196 is at  -1.060572  8.144815  1.165023
      ESP Fit Center  197 is at  -1.375646  7.865684  1.165023
      ESP Fit Center  198 is at  -1.614764  7.519261  1.165023
      ESP Fit Center  199 is at  -1.041100  7.830045  0.846797
      ESP Fit Center  200 is at  -1.317879  7.510625  0.846797
      ESP Fit Center  201 is at  -0.771774  7.638859  0.585635
      ESP Fit Center  202 is at  -1.060628  7.322001  0.585635
      ESP Fit Center  203 is at  -0.631692  4.800729  3.350875
      ESP Fit Center  204 is at  -0.229875  4.693063  3.350875
      ESP Fit Center  205 is at   0.171943  4.800729  3.350875
      ESP Fit Center  206 is at  -0.932967  4.565653  3.156814
      ESP Fit Center  207 is at  -0.549157  4.374538  3.156814
      ESP Fit Center  208 is at  -0.122225  4.334977  3.156814
      ESP Fit Center  209 is at   0.290167  4.452313  3.156814
      ESP Fit Center  210 is at   0.632325  4.710699  3.156814
      ESP Fit Center  211 is at  -0.846735  4.145963  2.895652
      ESP Fit Center  212 is at  -0.441201  4.026888  2.895652
      ESP Fit Center  213 is at  -0.018548  4.026888  2.895652
      ESP Fit Center  214 is at   0.386985  4.145963  2.895652
      ESP Fit Center  215 is at   0.742544  4.374467  2.895652
      ESP Fit Center  216 is at  -0.440342  3.763343  2.577426
      ESP Fit Center  217 is at  -0.019407  3.763343  2.577426
      ESP Fit Center  218 is at  -0.124837  3.559396  2.214363
      ESP Fit Center  219 is at  -0.440342  7.230053  0.244031
      ESP Fit Center  220 is at  -0.849045  7.129317  0.244031
      ESP Fit Center  221 is at   0.742544  6.618929 -0.074196
      ESP Fit Center  222 is at   0.386985  6.847432 -0.074196
      ESP Fit Center  223 is at  -0.018548  6.966508 -0.074196
      ESP Fit Center  224 is at  -0.441201  6.966508 -0.074196
      ESP Fit Center  225 is at  -0.846735  6.847432 -0.074196
      ESP Fit Center  226 is at   0.290167  6.541083 -0.335358
      ESP Fit Center  227 is at  -0.122225  6.658418 -0.335358
      ESP Fit Center  228 is at  -0.549157  6.618857 -0.335358
      ESP Fit Center  229 is at   0.171943  6.192666 -0.529419
      ESP Fit Center  230 is at  -0.229875  6.300333 -0.529419
      ESP Fit Center  231 is at   1.177704  4.887773  2.916384
      ESP Fit Center  232 is at   0.973951  4.534862  2.916384
      ESP Fit Center  233 is at   1.567401  4.887773  2.789764
      ESP Fit Center  234 is at   0.770197  4.090569  2.789764
      ESP Fit Center  235 is at   1.168799  4.197374  2.789764
[...]
 **** Fit      -0.171878
 **** Fit      -0.174091
 **** Fit      -0.176441
 **** Fit      -0.178567
 **** Fit      -0.180127
 **** Fit      -0.180951
 **** Fit      -0.181120
 **** Fit      -0.180874
 **** Fit      -0.180427
 **** Fit      -0.179841
 **** Fit      -0.179065
 **** Fit      -0.178057
 **** Fit      -0.176854
 **** Fit      -0.175543
 **** Fit      -0.174194
 **** Fit      -0.172841
 **** Fit      -0.171513
 **** Fit      -0.170271
 **** Fit      -0.169215
 **** Fit      -0.168453
 **** Fit      -0.168082
 **** Fit      -0.168185
 **** Fit      -0.168834
 **** Fit      -0.170253
 **** Fit      -0.172246
 **** Fit      -0.174737
 **** Fit      -0.177523
 **** Fit      -0.180299
 **** Fit      -0.182683
 **** Fit      -0.184324
 **** Fit      -0.185048
 **** Fit      -0.184963
 **** Fit      -0.184392
 **** Fit      -0.183685
 **** Fit      -0.183034
 **** Fit      -0.182419
 **** Fit      -0.181700
 **** Fit      -0.180764
 **** Fit      -0.179612
 **** Fit      -0.178337
 **** Fit      -0.177036
 **** Fit      -0.175750
 **** Fit      -0.174461
 **** Fit      -0.173141
 **** Fit      -0.171806
 **** Fit      -0.170522
 **** Fit      -0.169389
 **** Fit      -0.168505
 **** Fit      -0.167948
 **** Fit      -0.167775
 **** Fit      -0.168051
 **** Fit      -0.168855
 **** Fit      -0.170529
 **** Fit      -0.172822
 **** Fit      -0.175732
 **** Fit      -0.179091
 **** Fit      -0.182636
 **** Fit      -0.185985
 **** Fit      -0.188663
 **** Fit      -0.190237
 **** Fit      -0.190536
 **** Fit      -0.189771
 **** Fit      -0.188444
 **** Fit      -0.187092
 **** Fit      -0.186057
 **** Fit      -0.185368
 **** Fit      -0.184802
 **** Fit      -0.184086
 **** Fit      -0.183079
 **** Fit      -0.181821
 **** Fit      -0.180464
 **** Fit      -0.179154
 **** Fit      -0.177939
 **** Fit      -0.176766
 **** Fit      -0.175543
 **** Fit      -0.174211
 **** Fit      -0.172786
 **** Fit      -0.171353
 **** Fit      -0.170033
 **** Fit      -0.168940
 **** Fit      -0.168151
 **** Fit      -0.167705
 **** Fit      -0.167632
 **** Fit      -0.168001
 **** Fit      -0.168931
 **** Fit      -0.170755
 **** Fit      -0.173413
 **** Fit      -0.176816
 **** Fit      -0.180816
 **** Fit      -0.185215
 **** Fit      -0.189708
 **** Fit      -0.193800
 **** Fit      -0.196843
 **** Fit      -0.198247
 **** Fit      -0.197819
 **** Fit      -0.195927
 **** Fit      -0.193331
 **** Fit      -0.187231
 **** Fit      -0.186552
 **** Fit      -0.185428
 **** Fit      -0.183987
 **** Fit      -0.182485
 **** Fit      -0.181143
 **** Fit      -0.180039
 **** Fit      -0.179090
 **** Fit      -0.178125
 **** Fit      -0.176990
 **** Fit      -0.175623
 **** Fit      -0.174067
 **** Fit      -0.172439
 **** Fit      -0.170889
 **** Fit      -0.169562
 **** Fit      -0.168554
 **** Fit      -0.167891
 **** Fit      -0.167545
 **** Fit      -0.167518
 **** Fit      -0.167913
 **** Fit      -0.168934
 **** Fit      -0.178086
 **** Fit      -0.182992
 **** Fit      -0.188504
 **** Fit      -0.194442
 **** Fit      -0.188437
 **** Fit      -0.186791
 **** Fit      -0.184925
 **** Fit      -0.183271
 **** Fit      -0.182078
 **** Fit      -0.181330
 **** Fit      -0.180793
 **** Fit      -0.180162
 **** Fit      -0.179205
 **** Fit      -0.177835
 **** Fit      -0.176111
 **** Fit      -0.174185
 **** Fit      -0.172252
 **** Fit      -0.170517
 **** Fit      -0.186145
 **** Fit      -0.193368
 **** Fit      -0.182430
 **** Fit      -0.182559
 **** Fit      -0.182289
 **** Fit      -0.181342
 **** Fit      -0.179690
 **** Fit      -0.177494
 **** Fit      -0.174996
 **** Fit      -0.184738
 **** Fit      -0.184795
 **** Fit      -0.183704
 **** Fit      -0.181580
 **** Fit      -0.187641
 **** Fit      -0.186662
 **** Fit      -0.184169
 **** Fit      -0.190068
 **** Fit      -0.189982
 **** Fit      -0.178477
 **** Fit      -0.180742
 **** Fit      -0.179290
 **** Fit      -0.177494
 **** Fit      -0.176897
 **** Fit      -0.177661
 **** Fit      -0.179659
 **** Fit      -0.180097
 **** Fit      -0.178178
 **** Fit      -0.176653
 **** Fit      -0.175852
 **** Fit      -0.175830
 **** Fit      -0.176249
 **** Fit      -0.176892
 **** Fit      -0.178337
 **** Fit      -0.181046
 **** Fit      -0.183620
 **** Fit      -0.180971
 **** Fit      -0.179107
 **** Fit      -0.177324
 **** Fit      -0.175889
 **** Fit      -0.174997
 **** Fit      -0.174741
 **** Fit      -0.175083
 **** Fit      -0.175680
 **** Fit      -0.176064
 **** Fit      -0.176233
 **** Fit      -0.176863
 **** Fit      -0.178857
 **** Fit      -0.182517
 **** Fit      -0.186704
 **** Fit      -0.180311
 **** Fit      -0.178385
 **** Fit      -0.176595
 **** Fit      -0.175151
 **** Fit      -0.174151
 **** Fit      -0.173636
 **** Fit      -0.173702
 **** Fit      -0.174417
 **** Fit      -0.175453
 **** Fit      -0.176175
 **** Fit      -0.176207
 **** Fit      -0.175738
 **** Fit      -0.175452
 **** Fit      -0.176263
 **** Fit      -0.181927
 **** Fit      -0.179836
 **** Fit      -0.177749
 **** Fit      -0.175897
 **** Fit      -0.174409
 **** Fit      -0.173310
 **** Fit      -0.172538
 **** Fit      -0.175234
 **** Fit      -0.176703
 **** Fit      -0.177231
 **** Fit      -0.176702
 **** Fit      -0.175440
 **** Fit      -0.174107
 **** Fit      -0.183658
 **** Fit      -0.181209
 **** Fit      -0.178752
 **** Fit      -0.176515
 **** Fit      -0.174644
 **** Fit      -0.173206
 **** Fit      -0.172136
 **** Fit      -0.178350
 **** Fit      -0.179023
 **** Fit      -0.178201
 **** Fit      -0.176192
 **** Fit      -0.185335
 **** Fit      -0.182334
 **** Fit      -0.179408
 **** Fit      -0.176759
 **** Fit      -0.174518
 **** Fit      -0.172794
 **** Fit      -0.171601
 **** Fit      -0.181703
 **** Fit      -0.181353
 **** Fit      -0.190791
 **** Fit      -0.187336
 **** Fit      -0.183722
 **** Fit      -0.180291
 **** Fit      -0.177189
 **** Fit      -0.174481
 **** Fit      -0.196920
 **** Fit      -0.193180
 **** Fit      -0.188808
 **** Fit      -0.184451
 **** Fit      -0.186430
 **** Fit      -0.184890
 **** Fit      -0.179840
 **** Fit      -0.181348
 **** Fit      -0.184811
 **** Fit      -0.178900
 **** Fit      -0.175999
 **** Fit      -0.176084
 **** Fit      -0.178541
 **** Fit      -0.183344
 **** Fit      -0.194156
 **** Fit      -0.186678
 **** Fit      -0.180451
 **** Fit      -0.176233
 **** Fit      -0.174302
 **** Fit      -0.174383
 **** Fit      -0.175864
 **** Fit      -0.178149
 **** Fit      -0.181180
 **** Fit      -0.185886
 **** Fit      -0.189684
 **** Fit      -0.182788
 **** Fit      -0.177829
 **** Fit      -0.175086
 **** Fit      -0.174392
 **** Fit      -0.175313
 **** Fit      -0.177216
 **** Fit      -0.179394
 **** Fit      -0.181368
 **** Fit      -0.183319
 **** Fit      -0.186350
 **** Fit      -0.185477
 **** Fit      -0.179984
 **** Fit      -0.176979
 **** Fit      -0.176182
 **** Fit      -0.177203
 **** Fit      -0.179508
 **** Fit      -0.183415
 **** Fit      -0.180220
 **** Fit      -0.179364
 **** Fit      -0.180504
 **** Fit      -0.185864
 **** Fit      -0.183960
 **** Fit      -0.184499
 **** Fit      -0.190190
 **** Fit      -0.189890
 **** Fit      -0.197078
 **** Fit      -0.196873
 **** Fit      -0.184433
 **** Fit      -0.179002
 **** Fit      -0.179120
 **** Fit      -0.184599
 **** Fit      -0.180008
 **** Fit      -0.175763
 **** Fit      -0.173093
 **** Fit      -0.173810
 **** Fit      -0.179015
 **** Fit      -0.175200
 **** Fit      -0.171193
 **** Fit      -0.169026
 **** Fit      -0.169629
 **** Fit      -0.173245
 **** Fit      -0.179882
 **** Fit      -0.172815
 **** Fit      -0.179333
 **** Fit      -0.178261
 **** Fit      -0.184419
 **** Fit      -0.188075
 **** Fit      -0.191399
 **** Fit      -0.192965
 **** Fit      -0.191755
 **** Fit      -0.197156
 **** Fit      -0.191903
 **** Fit      -0.167018
 **** Fit      -0.164343
 **** Fit      -0.157349
 **** Fit      -0.149706
 **** Fit      -0.147292
 **** Fit      -0.144183
 **** Fit      -0.141690
 **** Fit      -0.137197
 **** Fit      -0.136055
 **** Fit      -0.134207
 **** Fit      -0.132779
 **** Fit      -0.132156
 **** Fit      -0.132122
 **** Fit      -0.130503
 **** Fit      -0.129573
 **** Fit      -0.129343
 **** Fit      -0.129282
 **** Fit      -0.127993
 **** Fit      -0.127360
 **** Fit      -0.127399
 **** Fit      -0.128903
 **** Fit      -0.127277
 **** Fit      -0.126267
 **** Fit      -0.125896
 **** Fit      -0.126183
 **** Fit      -0.127141
 **** Fit      -0.129711
 **** Fit      -0.127617
 **** Fit      -0.126126
 **** Fit      -0.125266
 **** Fit      -0.125062
 **** Fit      -0.125534
 **** Fit      -0.126703
 **** Fit      -0.128599
 **** Fit      -0.131834
 **** Fit      -0.129719
 **** Fit      -0.127439
 **** Fit      -0.125825
 **** Fit      -0.124906
 **** Fit      -0.124712
 **** Fit      -0.125269
 **** Fit      -0.126608
 **** Fit      -0.128773
 **** Fit      -0.132753
 **** Fit      -0.137354
 **** Fit      -0.143324
 **** Fit      -0.133404
 **** Fit      -0.130222
 **** Fit      -0.127743
 **** Fit      -0.125988
 **** Fit      -0.124990
 **** Fit      -0.124784
 **** Fit      -0.125407
 **** Fit      -0.126898
 **** Fit      -0.129316
 **** Fit      -0.133942
 **** Fit      -0.139072
 **** Fit      -0.145825
 **** Fit      -0.154597
 **** Fit      -0.138796
 **** Fit      -0.134618
 **** Fit      -0.131180
 **** Fit      -0.149257
 **** Fit      -0.186823
 **** Fit      -0.148878
 **** Fit      -0.143044
 **** Fit      -0.138038
 **** Fit      -0.189308
 **** Fit      -0.181718
 **** Fit      -0.173387
 **** Fit      -0.165020
 **** Fit      -0.157124
 **** Fit      -0.149979
 **** Fit      -0.192897
 **** Fit      -0.185076
 **** Fit      -0.176347
 **** Fit      -0.167425
 **** Fit      -0.158922
 **** Fit      -0.173040
 **** Fit      -0.163285
 **** Fit      -0.153257
 **** Fit      -0.160970
 **** Fit      -0.165799
 **** Fit      -0.155018
 **** Fit      -0.145692
 **** Fit      -0.150558
 **** Fit      -0.159209
 **** Fit      -0.170979
 **** Fit      -0.155972
 **** Fit      -0.148266
 **** Fit      -0.144888
 **** Fit      -0.140020
 **** Fit      -0.143750
 **** Fit      -0.149841
 **** Fit      -0.158261
 **** Fit      -0.168897
 **** Fit      -0.142887
 **** Fit      -0.139576
 **** Fit      -0.138633
 **** Fit      -0.135889
 **** Fit      -0.139189
 **** Fit      -0.144255
 **** Fit      -0.151142
 **** Fit      -0.159873
 **** Fit      -0.170408
 **** Fit      -0.139407
 **** Fit      -0.136040
 **** Fit      -0.134345
 **** Fit      -0.134290
 **** Fit      -0.133072
 **** Fit      -0.136216
 **** Fit      -0.140839
 **** Fit      -0.147023
 **** Fit      -0.154846
 **** Fit      -0.164344
 **** Fit      -0.175455
 **** Fit      -0.187989
 **** Fit      -0.134042
 **** Fit      -0.131837
 **** Fit      -0.130931
 **** Fit      -0.131330
 **** Fit      -0.131424
 **** Fit      -0.134453
 **** Fit      -0.138737
 **** Fit      -0.144361
 **** Fit      -0.151419
 **** Fit      -0.159996
 **** Fit      -0.170139
 **** Fit      -0.181759
 **** Fit      -0.194466
 **** Fit      -0.130564
 **** Fit      -0.129180
 **** Fit      -0.128841
 **** Fit      -0.129574
 **** Fit      -0.130852
 **** Fit      -0.134027
 **** Fit      -0.138425
 **** Fit      -0.144141
 **** Fit      -0.151278
 **** Fit      -0.159942
 **** Fit      -0.170235
 **** Fit      -0.182184
 **** Fit      -0.127880
 **** Fit      -0.127843
 **** Fit      -0.128815
 **** Fit      -0.131300
 **** Fit      -0.134640
 **** Fit      -0.139173
 **** Fit      -0.144997
 **** Fit      -0.152212
 **** Fit      -0.160915
 **** Fit      -0.171195
 **** Fit      -0.183116
 **** Fit      -0.127562
 **** Fit      -0.127834
 **** Fit      -0.129058
 **** Fit      -0.132734
 **** Fit      -0.136392
 **** Fit      -0.141291
 **** Fit      -0.147544
 **** Fit      -0.155255
 **** Fit      -0.164494
 **** Fit      -0.175282
 **** Fit      -0.128706
 **** Fit      -0.130205
 **** Fit      -0.135141
 **** Fit      -0.139444
 **** Fit      -0.145214
 **** Fit      -0.152616
 **** Fit      -0.161778
 **** Fit      -0.132142
 **** Fit      -0.143782
 **** Fit      -0.150940
 **** Fit      -0.126138
 **** Fit      -0.124863
 **** Fit      -0.124634
 **** Fit      -0.125510
 **** Fit      -0.130231
 **** Fit      -0.135288
 **** Fit      -0.135031
 **** Fit      -0.130809
 **** Fit      -0.127564
 **** Fit      -0.125306
 **** Fit      -0.124053
 **** Fit      -0.123835
 **** Fit      -0.124713
 **** Fit      -0.126791
 **** Fit      -0.129884
 **** Fit      -0.135185
 **** Fit      -0.142832
 **** Fit      -0.142839
 **** Fit      -0.136951
 **** Fit      -0.132131
 **** Fit      -0.128390
 **** Fit      -0.125729
 **** Fit      -0.124152
 **** Fit      -0.123688
 **** Fit      -0.124397
 **** Fit      -0.126397
 **** Fit      -0.129895
 **** Fit      -0.135366
 **** Fit      -0.143573
 **** Fit      -0.156441
 **** Fit      -0.148274
 **** Fit      -0.141207
 **** Fit      -0.135357
 **** Fit      -0.130748
 **** Fit      -0.127370
 **** Fit      -0.125215
 **** Fit      -0.124297
 **** Fit      -0.124673
 **** Fit      -0.126463
 **** Fit      -0.130202
 **** Fit      -0.135462
 **** Fit      -0.143596
 **** Fit      -0.164696
 **** Fit      -0.155208
 **** Fit      -0.146855
 **** Fit      -0.139856
 **** Fit      -0.134263
 **** Fit      -0.130063
 **** Fit      -0.127227
 **** Fit      -0.125747
 **** Fit      -0.125659
 **** Fit      -0.127071
 **** Fit      -0.130747
 **** Fit      -0.135676
 **** Fit      -0.170357
 **** Fit      -0.159273
 **** Fit      -0.149609
 **** Fit      -0.141682
 **** Fit      -0.135544
 **** Fit      -0.131148
 **** Fit      -0.128442
 **** Fit      -0.127411
 **** Fit      -0.128118
 **** Fit      -0.131518
 **** Fit      -0.163163
 **** Fit      -0.152363
 **** Fit      -0.143636
 **** Fit      -0.137092
 **** Fit      -0.132667
 **** Fit      -0.130277
 **** Fit      -0.129882
 **** Fit      -0.157389
 **** Fit      -0.147212
 **** Fit      -0.139704
 **** Fit      -0.134908
 **** Fit      -0.164971
 **** Fit      -0.152835
 **** Fit      -0.143261
 **** Fit      -0.166746
 **** Fit      -0.159511
 **** Fit      -0.162408
 **** Fit      -0.154437
 **** Fit      -0.150575
 **** Fit      -0.150901
 **** Fit      -0.168875
 **** Fit      -0.159033
 **** Fit      -0.151729
 **** Fit      -0.146714
 **** Fit      -0.143949
 **** Fit      -0.143450
 **** Fit      -0.168612
 **** Fit      -0.159470
 **** Fit      -0.152086
 **** Fit      -0.146277
 **** Fit      -0.142035
 **** Fit      -0.139373
 **** Fit      -0.138293
 **** Fit      -0.138794
 **** Fit      -0.172715
 **** Fit      -0.163671
 **** Fit      -0.155884
 **** Fit      -0.149224
 **** Fit      -0.143753
 **** Fit      -0.139540
 **** Fit      -0.136614
 **** Fit      -0.134968
 **** Fit      -0.134586
 **** Fit      -0.176902
 **** Fit      -0.168624
 **** Fit      -0.160965
 **** Fit      -0.153922
 **** Fit      -0.147686
 **** Fit      -0.142428
 **** Fit      -0.138237
 **** Fit      -0.135134
 **** Fit      -0.133104
 **** Fit      -0.132123
 **** Fit      -0.180022
 **** Fit      -0.172600
 **** Fit      -0.165047
 **** Fit      -0.157636
 **** Fit      -0.150788
 **** Fit      -0.144815
 **** Fit      -0.139870
 **** Fit      -0.135995
 **** Fit      -0.133173
 **** Fit      -0.131364
 **** Fit      -0.130536
 **** Fit      -0.189223
 **** Fit      -0.183749
 **** Fit      -0.177429
 **** Fit      -0.170162
 **** Fit      -0.162499
 **** Fit      -0.155121
 **** Fit      -0.148501
 **** Fit      -0.142869
 **** Fit      -0.138290
 **** Fit      -0.134745
 **** Fit      -0.132188
 **** Fit      -0.130570
 **** Fit      -0.189427
 **** Fit      -0.184875
 **** Fit      -0.178515
 **** Fit      -0.170843
 **** Fit      -0.162828
 **** Fit      -0.155272
 **** Fit      -0.148615
 **** Fit      -0.143015
 **** Fit      -0.138486
 **** Fit      -0.134979
 **** Fit      -0.132431
 **** Fit      -0.189983
 **** Fit      -0.184575
 **** Fit      -0.177037
 **** Fit      -0.168536
 **** Fit      -0.160228
 **** Fit      -0.152787
 **** Fit      -0.146469
 **** Fit      -0.141310
 **** Fit      -0.137259
 **** Fit      -0.134237
 **** Fit      -0.190970
 **** Fit      -0.185045
 **** Fit      -0.177009
 **** Fit      -0.168213
 **** Fit      -0.159828
 **** Fit      -0.152456
 **** Fit      -0.146292
 **** Fit      -0.141338
 **** Fit      -0.137522
 **** Fit      -0.190392
 **** Fit      -0.184012
 **** Fit      -0.175985
 **** Fit      -0.167480
 **** Fit      -0.159477
 **** Fit      -0.152478
 **** Fit      -0.146651
 **** Fit      -0.172240
 **** Fit      -0.163883
 -----------------------------------------------------------------
 Leave Link  602 at Thu Mar 25 18:10:34 2021, MaxMem=  1610612736 cpu:              14.3 elap:               2.4

 Test job not archived.
 1\1\GINC-LAC-086\SP\RB3LYP\6-31G(d)\C26H42N10O10S4Zn1(2-)\PENGFEI\25-M
 ar-2021\0\\# B3LYP/6-31G* Integral=(Grid=UltraFine) Pop(MK,ReadRadii) 
 IOp(6/33=2,6/42=6)\\CLR\\-2,1\H,0,19.368,53.242,51.265\C,0,19.778,54.2
 51,51.212\C,0,18.904,55.134,50.319\O,0,19.264,56.288,50.038\H,0,20.809
 ,54.225,50.86\H,0,19.813,54.682,52.212\N,0,17.791,54.601,49.826\C,0,16
 .907,55.427,49.022\C,0,16.024,56.213,49.989\O,0,15.317,55.653,50.829\C
 ,0,16.045,54.627,48.05\S,0,15.055,55.715,46.973\H,0,17.572,53.633,50.0
 14\H,0,17.501,56.104,48.407\H,0,16.685,54.01,47.419\H,0,15.363,53.987,
 48.61\N,0,16.101,57.533,49.881\C,0,15.329,58.396,50.755\H,0,14.278,58.
 431,50.468\H,0,15.754,59.4,50.751\H,0,16.703,57.945,49.183\H,0,15.39,5
 8.026,51.778\H,0,15.071,51.842,44.355\C,0,15.55,52.786,44.613\C,0,14.9
 21,53.743,43.57\O,0,14.653,53.316,42.449\H,0,16.615,52.67,44.41\H,0,15
 .306,53.049,45.642\N,0,14.67,55.011,43.896\C,0,14.057,55.891,42.884\C,
 0,15.017,56.344,41.773\O,0,14.613,56.524,40.62\C,0,13.39,57.099,43.544
 \S,0,14.531,58.159,44.482\H,0,14.9,55.347,44.82\H,0,13.233,55.368,42.3
 99\H,0,12.929,57.724,42.779\H,0,12.625,56.757,44.241\N,0,16.287,56.546
 ,42.123\C,0,17.289,56.993,41.151\C,0,17.319,58.499,40.93\O,0,18.013,58
 .971,40.04\H,0,16.575,56.39,43.078\H,0,18.282,56.701,41.492\H,0,17.088
 ,56.533,40.183\N,0,16.606,59.235,41.784\C,0,16.476,60.687,41.721\C,0,1
 6.819,61.4,43.03\O,0,17.517,62.407,42.995\H,0,15.456,60.949,41.44\H,0,
 16.108,58.786,42.54\H,0,17.146,61.079,40.956\N,0,16.342,60.894,44.168\
 C,0,16.609,61.52,45.47\C,0,18.102,61.749,45.643\O,0,18.909,61.12,44.94
 7\C,0,16.075,60.662,46.631\S,0,17.056,59.153,47.047\H,0,15.779,60.056,
 44.148\H,0,16.092,62.478,45.526\H,0,16.044,61.261,47.541\H,0,15.071,60
 .311,46.392\N,0,18.482,62.62,46.575\C,0,19.906,62.921,46.785\C,0,20.75
 9,61.711,47.188\O,0,21.928,61.589,46.784\H,0,20.044,63.745,47.485\H,0,
 17.787,63.08,47.145\H,0,20.334,63.317,45.864\N,0,20.16,60.808,47.963\C
 ,0,20.858,59.609,48.41\C,0,21.27,58.767,47.232\O,0,22.399,58.286,47.17
 4\H,0,19.202,60.95,48.251\H,0,21.749,59.894,48.969\H,0,20.2,59.022,49.
 051\N,0,20.342,58.574,46.298\C,0,20.622,57.804,45.085\C,0,21.647,58.54
 9,44.244\O,0,22.493,57.919,43.615\C,0,19.34,57.582,44.265\S,0,18.138,5
 6.425,45.\H,0,19.418,58.964,46.42\H,0,21.016,56.825,45.358\H,0,18.819,
 58.531,44.14\H,0,19.599,57.179,43.286\N,0,21.559,59.881,44.217\C,0,22.
 501,60.696,43.447\H,0,23.514,60.542,43.819\H,0,22.224,61.75,43.48\H,0,
 20.829,60.346,44.737\H,0,22.456,60.409,42.396\Zn,0,16.2,57.412,45.833\
 \Version=ES64L-G16RevA.03\State=1-A\HF=-5688.0255793\RMSD=5.509e-09\Di
 pole=-1.4477829,3.3342453,4.7134057\Quadrupole=-24.5154136,45.8330026,
 -21.317589,-34.2179293,-2.271577,6.9806873\PG=C01 [X(C26H42N10O10S4Zn1
 )]\\@


 FROM AN ANONYMOUS WRITER, ON PERSPECTIVE:

 MAN, DESPITE HIS ARTISTIC PRETENSIONS, HIS SOPHISTICATION AND MANY 
 ACCOMPLISHMENTS, OWES THE FACT OF HIS EXISTENCE TO A SIX-INCH LAYER OF 
 TOPSOIL AND THE FACT THAT IT RAINS.
 File lengths (MBytes):  RWF=    520 Int=      0 D2E=      0 Chk=     56 Scr=     16
 Normal termination of Gaussian 16 at Thu Mar 25 18:10:35 2021.
