Job s272.solopt started on ajax.swmed.edu at Wed Apr  4 09:55:45 2012
jobid: ajax-0-4f7c60f1

  +--------------------------------------------------------------------+
  |  Jaguar version 6.5, release 112                                   |
  |                                                                    |
  |  Copyright (c) 2005 Schrodinger,  LLC.                             |
  |  All Rights Reserved.                                              |
  |                                                                    |
  |  Use of this program should be acknowledged in publications as:    |
  |  Jaguar, version 6.5, Schrodinger, LLC, New York, NY, 2005.        |
  +--------------------------------------------------------------------+
   
  start of program pre
  Job name: s272.solopt
  Executables used: /home/jwang/software/schrodinger/jaguar-v65112/bin/Linux-x86
  Temporary files : /tmp/jwang/s272.solopt
  
  Input file comments:
   This Jaguar input file generated by Babel 1.6
   
  
  basis set:             6-31g*          
  net molecular charge:    0
  multiplicity:            1
  
  number of basis functions....          106
  
 Input geometry:
                                   angstroms
  atom               x                 y                 z
  C1           -0.1114777953      0.9940682653      0.0000000000 
  C2            0.9242477544      2.0951372504      0.0000000000 
  H3            0.4232829068      3.0638251607      0.0000000000 
  H4            1.5671638833      2.0084695883      0.8821458054 
  H5            1.5671638833      2.0084695883     -0.8821458054 
  O6           -1.3119884518      1.1571211622      0.0000000000 
  O7            0.4781947185     -0.2233140648      0.0000000000 
  C8           -0.4182422241     -1.3578202224      0.0000000000 
  H9           -1.0633690481     -1.2984305478      0.8826711660 
  H10          -1.0633690481     -1.2984305478     -0.8826711660 
  C11           0.4339252246     -2.6132722526      0.0000000000 
  H12          -0.2097888732     -3.4997668295      0.0000000000 
  H13           1.0737902255     -2.6519278771     -0.8875269057 
  H14           1.0737902255     -2.6519278771      0.8875269057 
   
  principal moments of inertia:
        amu*angstrom^2:       60.29173      243.21952      294.05788
                g*cm^2: 1.00116845E-38 4.03875798E-38 4.88294936E-38
   
  rotational constants:
               cm^(-1):     0.27960105     0.06931035     0.05732760
                   GHz:     8.38222846     2.07787213     1.71863807
   
  Connectivity table:
                 C1       C2       H3       H4       H5       O6       O7      
  C1              0
  C2              1        0
  H3              2        1        0
  H4              2        1        2        0
  H5              2        1        2        2        0
  O6              1        2        3        3        3        0
  O7              1        2        3        3        3        2        0
  C8              2        4        4        4        4        3        1
  H9              3        4        4        4        4        3        2
  H10             3        4        4        4        4        3        2
  C11             3        4        4        4        4        4        2
  H12             4        4        4        4        4        4        3
  H13             4        4        4        4        4        4        3
  H14             4        4        4        4        4        4        3
                 C8       H9       H10      C11      H12      H13      H14     
  C8              0
  H9              1        0
  H10             1        2        0
  C11             1        2        2        0
  H12             2        3        3        1        0
  H13             2        3        3        1        2        0
  H14             2        3        3        1        2        2        0
  
  Molecular weight:      88.05 amu
   
  Stoichiometry: C4H8O2
  Molecular Point Group: Cs      
	Molecule translated to center of mass 
	Molecule reoriented along symmetry axes
  Point Group used: Cs
  
 
Number of optimization coordinates:    36
Number of independent coordinates:     36
Number of non-redundant coordinates:   36
Number of constrained coordinates:      0
 
Number of geometric degrees of freedom:    36
Maximum geometric degrees of freedom:      36
 " " " " " excluding dummy atoms:          36
 
  
 geometric coordinates and optimization variables:
 var coord  type     atom1     atom2     atom3     atom4      status
 --- ----- ------- --------- --------- --------- --------- -------------
   1     1 stretch  C1        C2                                               
   2     2  bend    C1        C2        H3                                     
   3     3  bend    C1        C2        H4                                     
   4     4  bend    C1        C2        H5                                     
   5     5 stretch  C1        O6                                               
   6     6 stretch  C1        O7                                               
   7     7  bend    C1        O7        C8                                     
   8     8 torsion  C1        O7        C8        H9                           
   9     9 torsion  C1        O7        C8        C11                          
  10    10  bend    C2        C1        O7                                     
  11    11 torsion  C2        C1        O7        C8                           
  12    12 stretch  C2        H3                                               
  13    13 stretch  C2        H4                                               
  14    14 stretch  C2        H5                                               
  15    15 torsion  H3        C1        C2        H4                           
  16    16 torsion  H3        C1        C2        H5                           
  17    17 torsion  H3        C2        C1        O7                           
  18    18  bend    O6        C1        O7                                     
  19    19 torsion  O6        C1        O7        C8                           
  20    20 stretch  O7        C8                                               
  21    21  bend    O7        C8        H9                                     
  22    22  bend    O7        C8        H10                                    
  23    23  bend    O7        C8        C11                                    
  24    24 torsion  O7        C8        C11       H12                          
  25    25 stretch  C8        H9                                               
  26    26 stretch  C8        H10                                              
  27    27 stretch  C8        C11                                              
  28    28  bend    C8        C11       H12                                    
  29    29  bend    C8        C11       H13                                    
  30    30  bend    C8        C11       H14                                    
  31    31 torsion  H9        O7        C8        H10                          
  32    32 stretch  C11       H12                                              
  33    33 stretch  C11       H13                                              
  34    34 stretch  C11       H14                                              
  35    35 torsion  H12       C8        C11       H13                          
  36    36 torsion  H12       C8        C11       H14                          
  
  
 Symmetrized geometry:
                                   angstroms
  atom               x                 y                 z
  C1           -0.1114777953      0.9940682653      0.0000000000 
  C2            0.9242477544      2.0951372504      0.0000000000 
  H3            0.4232829068      3.0638251607      0.0000000000 
  H4            1.5671638833      2.0084695883      0.8821458054 
  H5            1.5671638833      2.0084695883     -0.8821458054 
  O6           -1.3119884518      1.1571211622      0.0000000000 
  O7            0.4781947185     -0.2233140648      0.0000000000 
  C8           -0.4182422241     -1.3578202224      0.0000000000 
  H9           -1.0633690481     -1.2984305478      0.8826711660 
  H10          -1.0633690481     -1.2984305478     -0.8826711660 
  C11           0.4339252246     -2.6132722526      0.0000000000 
  H12          -0.2097888732     -3.4997668295      0.0000000000 
  H13           1.0737902255     -2.6519278771     -0.8875269057 
  H14           1.0737902255     -2.6519278771      0.8875269057 
   
  Connectivity table:
                 C1       C2       H3       H4       H5       O6       O7      
  C1              0
  C2              1        0
  H3              2        1        0
  H4              2        1        2        0
  H5              2        1        2        2        0
  O6              1        2        3        3        3        0
  O7              1        2        3        3        3        2        0
  C8              2        4        4        4        4        3        1
  H9              3        4        4        4        4        3        2
  H10             3        4        4        4        4        3        2
  C11             3        4        4        4        4        4        2
  H12             4        4        4        4        4        4        3
  H13             4        4        4        4        4        4        3
  H14             4        4        4        4        4        4        3
                 C8       H9       H10      C11      H12      H13      H14     
  C8              0
  H9              1        0
  H10             1        2        0
  C11             1        2        2        0
  H12             2        3        3        1        0
  H13             2        3        3        1        2        0
  H14             2        3        3        1        2        2        0
  
 
  bond lengths (angstroms):
 
 C1      -C2      :   1.511648      C1      -O6      :   1.211533
 C1      -O7      :   1.352676      C2      -H3      :   1.090560
 C2      -H4      :   1.095004      C2      -H5      :   1.095004
 O7      -C8      :   1.445926      C8      -H9      :   1.094908
 C8      -H10     :   1.094908      C8      -C11     :   1.517349
 C11     -H12     :   1.095555      C11     -H13     :   1.094818
 C11     -H14     :   1.094818
 
  bond angles:
 
 O6      -C1      -C2      : 125.513871  O7      -C1      -C2      : 110.907066
 O7      -C1      -O6      : 123.579063  H3      -C2      -C1      : 109.405453
 H4      -C2      -C1      : 110.159398  H4      -C2      -H3      : 109.877649
 H5      -C2      -C1      : 110.159398  H5      -C2      -H3      : 109.877649
 H5      -C2      -H4      : 107.338357  C8      -O7      -C1      : 115.841259
 H9      -C8      -O7      : 108.828309  H10     -C8      -O7      : 108.828309
 H10     -C8      -H9      : 107.444847  C11     -C8      -O7      : 107.518141
 C11     -C8      -H9      : 112.072965  C11     -C8      -H10     : 112.072965
 H12     -C11     -C8      : 109.847695  H13     -C11     -C8      : 110.943639
 H13     -C11     -H12     : 108.350789  H14     -C11     -C8      : 110.943639
 H14     -C11     -H12     : 108.350789  H14     -C11     -H13     : 108.321307
 
  torsional angles:
 
 C1      -O7      -C8      -H9      : -58.401035
 C1      -O7      -C8      -H10     :  58.401035
 C1      -O7      -C8      -C11     : 180.000000
 C2      -C1      -O7      -C8      : 180.000000
 H3      -C2      -C1      -O6      :   0.000001
 H3      -C2      -C1      -O7      : 180.000000
 H4      -C2      -C1      -O6      : 120.886684
 H4      -C2      -C1      -O7      : -59.113316
 H5      -C2      -C1      -O6      :-120.886684
 H5      -C2      -C1      -O7      :  59.113316
 O6      -C1      -O7      -C8      :   0.000000
 O7      -C8      -C11     -H12     : 180.000000
 O7      -C8      -C11     -H13     : -60.228104
 O7      -C8      -C11     -H14     :  60.228104
 H9      -C8      -C11     -H12     :  60.449318
 H9      -C8      -C11     -H13     :-179.778786
 H9      -C8      -C11     -H14     : -59.322578
 H10     -C8      -C11     -H12     : -60.449318
 H10     -C8      -C11     -H13     :  59.322578
 H10     -C8      -C11     -H14     : 179.778786
 
  nuclear repulsion energy.......     242.862654021 hartrees
 
  Setting radii using lewisfile information
  Lewis dot structure information:
     only generating structure            1
 
  Structure number:  1
 
  Bonding information:
    - means single bond, = means double , % means triple
   C1      - C2      
   C1      = O6      
   C1      - O7      
   C2      - H3      
   C2      - H4      
   C2      - H5      
   O7      - C8      
   C8      - H9      
   C8      - H10     
   C8      - C11     
   C11     - H12     
   C11     - H13     
   C11     - H14     
 
               # Lone     Formal
  Atom         Pairs      Charge
   O6            2          0
   O7            2          0
 
  DGsa prefactor contributions:
 
   O7        1.30
 
 
  van der Waals radii (in A):
 
   C1          2.000
   C2          1.900
   H3          1.150
   H4          1.150
   H5          1.150
   O6          1.550
   O7          1.450
   C8          1.900
   H9          1.150
   H10         1.150
   C11         1.900
   H12         1.150
   H13         1.150
   H14         1.150
 
 
  Number of Lewis structures found:            1
 
 Non-default options chosen:
   SCF calculation type: DFT             
   DFT=Becke_3_Parameter/HF+Slater+Becke88+VWN+LYP (B3LYP)
   Geometry will be optimized in redundant internal coordinates
   Use projection method to maintain geometry constraints
   Optimize geometry with fixed trust radius
   Use level-shifting to restrict geometry steps
   RFO level-shifting used
   Solvation energy will be computed
   Lewis dot structure number   1 will be used to assign Van der Waals radii
   HF Initial guess: read from Jaguar .in file
   Maximum number of geometry steps:  300
   Energy-priority geometry convergence criteria
   Initial Hessian: read from Jaguar .in file in cartesian coordinates
   BFGS Hessian-updating used
   Geometry DIIS turned off
  
 Non-default print settings:
     11=  2  12=  2 192=  3
  
  atom       vdw   vdw2    cov     mass  grid  daf  charge   basis
  C1        1.949  2.000  0.770   12.000    Y    Y      Y    6-31g*
  C2        1.949  1.900  0.770   12.000    Y    Y      Y    6-31g*
  H3        1.597  1.150  0.320    1.008    Y    Y      Y    6-31g*
  H4        1.597  1.150  0.320    1.008    Y    Y      Y    6-31g*
  H5        1.597  1.150  0.320    1.008    Y    Y      Y    6-31g*
  O6        1.702  1.550  0.730   15.995    Y    Y      Y    6-31g*
  O7        1.702  1.450  0.730   15.995    Y    Y      Y    6-31g*
  C8        1.949  1.900  0.770   12.000    Y    Y      Y    6-31g*
  H9        1.597  1.150  0.320    1.008    Y    Y      Y    6-31g*
  H10       1.597  1.150  0.320    1.008    Y    Y      Y    6-31g*
  C11       1.949  1.900  0.770   12.000    Y    Y      Y    6-31g*
  H12       1.597  1.150  0.320    1.008    Y    Y      Y    6-31g*
  H13       1.597  1.150  0.320    1.008    Y    Y      Y    6-31g*
  H14       1.597  1.150  0.320    1.008    Y    Y      Y    6-31g*
  
  end of program pre
   
   
  start of program onee
  smallest eigenvalue of S:    4.040E-03
  number of canonical orbitals.....          106
  end of program onee
   
   
  start of program hfig
  initial wavefunction read from .in file
  reading wavefunction from input file
          34  orbitals read from .in file
  virtual orbitals input are ignored
  Largest Normalization error   1.418761982896477E-011
  RMS Normalization error   3.374635734349934E-012
 
  Irreducible     Total no   No of occupied orbitals 
  representation  orbitals   Shell_1  Shell_2    ...
  Ap                76         19
  App               30          5
  ------------------------
  Orbital occupation/shell    1.000
 
  end of program hfig
   
   
  start of program probe
  end of program probe
   
   
  start of program grid
   
  number of gridpoints: 
     atom         C1        C2        H3        H4        H5        O6        O7        C8
  grid # 1        52        43        42        73         0        67        63        47
  grid # 2        55        47        67       109         0        73        67        52
  grid # 3       112        90       130       222         0       156       143        98
  grid # 4       198       160       262       442         0       285       254       169
  grid # 5        12         5       230       388         0       181        48         5
  grid # 6      2430      2430      2430      4304         0      2430      2430      2430
  grid # 7       756       756       756      1192         0       756       756       756
  grid # 8      3001      3001      3001      5226         0      3001      3001      3001
  grid # 9      3756      3756      3033      5378         0      5752      5752      3756
  grid #10       426       426       464       744         0       441       441       426
   
  number of gridpoints: 
     atom         H9       H10       C11       H12       H13       H14     total
  grid # 1        70         0        43        42         0        72       614
  grid # 2       109         0        47        66         0       111       803
  grid # 3       218         0        89       132         0       222      1612
  grid # 4       442         0       159       262         0       443      3076
  grid # 5       315         0         5       226         0       362      1777
  grid # 6      4304         0      2430      2430         0      4304     32352
  grid # 7      1192         0       756       756         0      1192      9624
  grid # 8      5226         0      3001      3001         0      5226     39686
  grid # 9      5378         0      3756      3033         0      5378     48728
  grid #10       744         0       426       464         0       744      5746
   
  end of program grid
   
   
  start of program rwr
  end of program rwr
   
   
  start of program scf 
 number of electrons..........         48
 number of alpha electrons....         24
 number of beta electrons.....         24
 number of orbitals, total....        106
 number of doubly-occ'd orbs..         24
 number of open shell orbs....          0
 number of occupied orbitals..         24
 number of virtual orbitals...         82
 number of hamiltonians.......          1
 number of shells.............          1
 SCF type: DFT=Becke_3_Parameter/HF+Slater+Becke88+VWN+LYP (B3LYP)
  
       i  u  d  i  g                   
       t  p  i  c  r                                 RMS    maximum
       e  d  i  u  i                       energy  density   DIIS  
       r  t  s  t  d       total energy    change  change    error 
  
etot   1  N  N  2  U    -307.70746517248           3.1E-06  3.7E-05
etot   2  Y  N  6  M    -307.70746521401  4.2E-08  0.0E+00  0.0E+00
  
  
 Energy components, in hartrees:
   (A)  Nuclear repulsion............     242.86265402092
   (E)  Total one-electron terms.....    -899.19421049893
   (F)    Electron-nuclear...........   -1204.09464627477
   (H)    Kinetic....................     304.90043577584
   (I)  Total two-electron terms.....     348.62409126400
   (J)    Coulomb....................     390.49061454193
   (K)    Exchange+Correlation.......     -41.86652327793
   (L)  Electronic energy............    -550.57011923493  (E+I)
   (M)  -V/T.........................       2.00920638054  (-(A+F+I)/H)
   (N)  Total energy.................    -307.70746521401  (A+L)
  
 SCFE: SCF energy: DFT      -307.70746521401 hartrees   iterations:   2
  
 
 HOMO energy:    -0.26657
 LUMO energy:     0.01661
 
  Orbital energies/symmetry label: 
  -19.18545 Ap       -19.13054 Ap       -10.31199 Ap       -10.24179 Ap     
  -10.19409 Ap       -10.18608 Ap        -1.09510 Ap        -1.00789 Ap     
   -0.78278 Ap        -0.73583 Ap        -0.63685 Ap        -0.56477 Ap     
   -0.49201 App       -0.48661 Ap        -0.46154 Ap        -0.44307 App    
   -0.41418 Ap        -0.39884 Ap        -0.38916 App       -0.38376 Ap     
   -0.35269 App       -0.34758 Ap        -0.29639 App       -0.26657 Ap     
    0.01661 App        0.10012 Ap         0.11253 Ap         0.13187 Ap     
    0.14721 App        0.14926 Ap         0.16593 Ap         0.17342 App    
    0.18106 Ap         0.19731 App    
 
  end of program scf 
   
   
  start of program der1a
  end of program der1a
   
   
  start of program rwr
  end of program rwr
   
   
  start of program der1b
   
  forces (hartrees/bohr) : total     
   
 atom  label           x              y              z
 ---- --------   -------------  -------------  -------------
    1 C1         -8.406456E-06  -6.744058E-05   0.000000E+00
    2 C2          7.665815E-05  -8.209432E-05   0.000000E+00
    3 H3          9.264546E-06  -1.076874E-05   0.000000E+00
    4 H4          2.772363E-05  -1.383901E-05   1.306795E-05
    5 H5          2.772363E-05  -1.383901E-05  -1.306795E-05
    6 O6         -2.908787E-04   9.997266E-05   0.000000E+00
    7 O7          3.292035E-04  -5.351896E-05   0.000000E+00
    8 C8         -1.703200E-04  -1.567142E-04   0.000000E+00
    9 H9          1.895244E-05   2.155880E-05   1.360223E-05
   10 H10         1.895244E-05   2.155880E-05  -1.360223E-05
   11 C11        -2.417488E-05   1.258461E-04   0.000000E+00
   12 H12        -1.241742E-05  -9.984589E-06   0.000000E+00
   13 H13        -7.267330E-06  -2.567264E-05  -1.811247E-05
   14 H14        -7.267330E-06  -2.567264E-05   1.811247E-05
 -------------   -------------  -------------  -------------
     total       -1.225377E-05  -1.906083E-04   0.000000E+00
   
  end of program der1b
   
   
  start of program geopt   1
  
  geometry optimization step  1
  energy:            -307.70746521401 hartrees
  reading input hessian of dimension    42
   in five columns format
   
  final hessian
   
             1              2              3              4              5
   1    2.673531E-01
   2    5.661289E-03   2.472659E-01
   3    4.624261E-03   4.210605E-02   2.422386E-01
   4    4.624261E-03   4.210605E-02   4.021521E-02   2.422386E-01
   5    3.133674E-02   4.811817E-03   1.246602E-02   1.246602E-02   9.109536E-01
   6    2.532178E-02   2.299023E-03   2.739215E-03   2.739215E-03   7.147920E-02
   7    5.531298E-03   1.290587E-02   6.665428E-03   6.665428E-03  -7.856520E-03
   8    8.550882E-16   2.150786E-17   3.490455E-08  -3.490455E-08  -9.340402E-17
   9   -2.225975E-15  -9.842387E-16  -1.495906E-09   1.495906E-09  -1.443290E-15
  10   -2.356550E-03   7.431368E-03   3.252938E-03   3.252938E-03  -3.550264E-02
  11    5.720318E-16   1.718189E-16   1.792306E-06  -1.792306E-06   5.659535E-16
  12    4.194481E-04  -8.732698E-04   2.396902E-04   2.396902E-04   1.040562E-02
  13    7.611785E-04  -7.430002E-04   6.361948E-04   5.287922E-04   1.206174E-02
  14    7.611785E-04  -7.430002E-04   5.287922E-04   6.361948E-04   1.206174E-02
  15    5.234025E-04  -6.615323E-02  -8.267085E-04   6.507799E-02   9.701032E-05
  16   -5.234025E-04   6.615323E-02  -6.507799E-02   8.267085E-04  -9.701032E-05
  17   -1.261571E-16  -3.724234E-17  -1.867000E-04   1.867000E-04  -8.565197E-17
  18    3.696608E-03  -4.629442E-04   2.451681E-03   2.451681E-03   3.406015E-02
  19   -3.853661E-16  -7.338965E-16  -1.763631E-06   1.763631E-06  -8.404735E-16
  20    1.642123E-02   4.262095E-06  -7.927820E-04  -7.927820E-04   3.282798E-02
  21    5.060630E-04   4.638509E-03   2.773335E-03   2.773321E-03  -4.230996E-03
  22    5.060630E-04   4.638509E-03   2.773321E-03   2.773335E-03  -4.230996E-03
  23    5.223707E-03   1.244588E-02   5.872650E-03   5.872650E-03  -1.729331E-02
  24   -7.087972E-17  -1.965659E-16  -5.787175E-09   5.787175E-09  -1.838807E-16
  25   -9.416035E-04  -1.688105E-04   1.210431E-03   1.210428E-03   1.087980E-02
  26   -9.416035E-04  -1.688105E-04   1.210428E-03   1.210431E-03   1.087980E-02
  27    4.890936E-03   7.418186E-03   4.088905E-03   4.088905E-03  -3.680444E-04
  28    6.298474E-03   1.382476E-03   2.574967E-04   2.574967E-04   7.655360E-03
  29    1.352833E-03  -3.629038E-04  -4.131334E-04  -4.131348E-04   1.746266E-03
  30    1.352833E-03  -3.629038E-04  -4.131348E-04  -4.131334E-04   1.746266E-03
  31   -2.617020E-03  -7.620341E-05   5.513028E-04   5.512679E-04  -4.165617E-04
  32    1.949487E-03  -1.776686E-04   4.367795E-04   4.367795E-04   1.021395E-02
  33   -4.972670E-05  -9.244123E-04   4.323811E-04   4.323807E-04   1.061260E-02
  34   -4.972670E-05  -9.244123E-04   4.323807E-04   4.323811E-04   1.061260E-02
  35   -3.662101E-04   5.446946E-04   2.491571E-04   2.491641E-04  -2.221425E-03
  36    3.662101E-04  -5.446946E-04  -2.491641E-04  -2.491571E-04   2.221425E-03
   
             6              7              8              9             10
   6    4.574060E-01
   7    4.263265E-02   2.769628E-01
   8    2.610813E-15   7.360106E-16   2.481388E-01
   9   -8.095196E-16  -9.350160E-16  -2.284033E-01   2.378560E-01
  10    1.069179E-02   6.207600E-04   2.705423E-15  -1.432136E-15   5.043417E-01
  11   -1.128509E-15   1.040184E-15   1.789429E-07  -1.352132E-07  -1.501620E-15
  12   -4.837614E-04  -4.226952E-03   1.623845E-16   9.872324E-16  -5.247259E-03
  13    9.422696E-04  -4.665259E-03  -4.341875E-09   6.302950E-09  -5.669176E-03
  14    9.422696E-04  -4.665259E-03   4.341875E-09  -6.302939E-09  -5.669176E-03
  15    8.582214E-04   1.160712E-03   4.371951E-08  -1.612217E-08   3.219735E-04
  16   -8.582214E-04  -1.160712E-03   4.371951E-08  -1.612217E-08  -3.219735E-04
  17   -2.416890E-16  -8.949005E-16   8.733648E-08  -5.407896E-08   5.731093E-16
  18    2.263254E-02   1.234611E-02   2.041463E-15  -2.133403E-15   2.424217E-01
  19    1.192016E-15   4.718448E-16   2.940000E-04  -7.262611E-08   3.560520E-16
  20    6.162336E-03   3.871214E-02   1.986235E-15  -4.075601E-15   1.726254E-02
  21    1.212341E-02  -2.763767E-03  -5.694355E-02   5.644588E-02  -3.892807E-03
  22    1.212341E-02  -2.763767E-03   5.694355E-02  -5.644588E-02  -3.892807E-03
  23    2.697600E-02   6.343706E-03   4.687926E-15  -3.433720E-15   1.987672E-03
  24   -4.465422E-16  -2.107689E-16  -1.562584E-02   1.562584E-02  -4.831205E-16
  25    2.464277E-03  -1.023915E-02  -8.608798E-05   5.356123E-09  -1.015082E-02
  26    2.464277E-03  -1.023915E-02   8.608798E-05  -5.356123E-09  -1.015082E-02
  27    1.942669E-02   3.150589E-03   1.656183E-15  -1.601105E-15  -8.382581E-04
  28    4.906182E-03   1.337763E-02   6.954443E-17  -1.830841E-16   7.915860E-03
  29   -1.095270E-03   3.952237E-03  -1.106236E-08  -3.177888E-08   2.590622E-03
  30   -1.095270E-03   3.952237E-03   1.106236E-08   3.177887E-08   2.590622E-03
  31    1.861564E-03  -7.203583E-03   1.240694E-01  -1.142016E-01  -5.159920E-03
  32    1.284505E-03  -3.060252E-04  -1.392994E-16   1.405387E-15  -2.618708E-03
  33    1.043709E-04  -5.870773E-03   7.681260E-09  -6.438679E-10  -6.334270E-03
  34    1.043709E-04  -5.870773E-03  -7.681261E-09   6.438706E-10  -6.334270E-03
  35    8.048105E-04  -7.241418E-04  -5.208618E-03   5.208587E-03  -4.039299E-04
  36   -8.048105E-04   7.241418E-04  -5.208618E-03   5.208587E-03   4.039299E-04
   
            11             12             13             14             15
  11    1.524475E-01
  12   -1.061800E-15   3.409223E-01
  13    1.035520E-06   6.401771E-04   3.361262E-01
  14   -1.035520E-06   6.401771E-04   7.099740E-04   3.361262E-01
  15    6.193494E-03  -3.152884E-04  -3.565658E-04  -3.065942E-04   2.229751E-01
  16    6.193494E-03   3.152884E-04   3.065942E-04   3.565658E-04  -1.060816E-01
  17    1.857971E-02  -1.460461E-15  -4.997452E-05   4.997452E-05   1.219307E-02
  18   -2.849597E-16   3.523477E-03   3.947831E-03   3.947831E-03   4.356091E-05
  19   -1.306594E-01   1.708106E-15  -1.039155E-06   1.039155E-06  -6.193470E-03
  20    2.344642E-16  -2.107642E-03  -1.119213E-03  -1.119213E-03   7.628314E-04
  21    4.567343E-08  -1.396488E-03  -1.657704E-03  -1.657700E-03   2.152485E-04
  22   -4.567344E-08  -1.396488E-03  -1.657700E-03  -1.657704E-03   2.152287E-04
  23   -2.402721E-15  -5.852074E-03  -6.323700E-03  -6.323700E-03   1.006768E-03
  24   -1.069895E-07   1.013404E-15   1.992343E-09  -1.992342E-09  -1.411068E-08
  25    1.444035E-08   6.867230E-04   6.114895E-04   6.114903E-04  -4.669097E-04
  26   -1.444035E-08   6.867230E-04   6.114903E-04   6.114895E-04  -4.669125E-04
  27    5.716061E-16  -2.832066E-03  -2.998872E-03  -2.998872E-03   5.813635E-04
  28    1.514243E-15  -9.834800E-04  -6.736291E-04  -6.736291E-04   5.105728E-04
  29   -2.507979E-08  -2.017434E-04  -9.693745E-05  -9.694006E-05   7.610051E-05
  30    2.507979E-08  -2.017434E-04  -9.694006E-05  -9.693745E-05   7.611219E-05
  31    8.947143E-08   1.129804E-03   9.853984E-04   9.854027E-04  -1.680322E-04
  32    4.675767E-17  -3.817880E-05   7.317407E-05   7.317407E-05  -1.421392E-04
  33    3.017308E-09   7.221825E-04   7.568187E-04   7.568189E-04  -3.529947E-04
  34   -3.017311E-09   7.221825E-04   7.568189E-04   7.568187E-04  -3.529957E-04
  35   -5.881097E-08  -2.704433E-04  -3.285929E-04  -3.285959E-04   1.281757E-05
  36   -5.881097E-08   2.704433E-04   3.285959E-04   3.285929E-04  -1.283940E-05
   
            16             17             18             19             20
  16    2.229751E-01
  17    1.219307E-02   3.648692E-02
  18   -4.356091E-05  -2.544181E-16   5.213143E-01
  19   -6.193470E-03  -1.857966E-02   8.617239E-16   1.525787E-01
  20   -7.628314E-04  -4.223836E-16   1.199200E-02  -6.505782E-16   3.097903E-01
  21   -2.152287E-04   2.229677E-08  -1.245625E-03  -1.391622E-04   1.272870E-02
  22   -2.152485E-04  -2.229677E-08  -1.245625E-03   1.391622E-04   1.272870E-02
  23   -1.006768E-03   4.541206E-16  -5.606014E-03   6.643005E-16   2.888618E-02
  24   -1.411068E-08  -1.937927E-08  -6.392456E-16  -1.716634E-08  -3.911801E-16
  25    4.669125E-04   4.167219E-09   4.110894E-03  -1.682552E-05   1.187249E-03
  26    4.669097E-04  -4.167219E-09   4.110894E-03   1.682552E-05   1.187249E-03
  27   -5.813635E-04   2.860050E-17  -1.330904E-03  -1.265035E-16   1.825170E-02
  28   -5.105728E-04   1.186156E-16   7.298193E-04   2.006182E-16   1.752656E-03
  29   -7.611219E-05  -1.929443E-08   4.723476E-04  -1.483548E-08  -1.628932E-03
  30   -7.610051E-05   1.929442E-08   4.723476E-04   1.483548E-08  -1.628932E-03
  31    1.680760E-04   4.366824E-08  -1.501906E-04   1.470000E-04   2.491670E-03
  32    1.421392E-04   1.540088E-16   3.375156E-03   1.153933E-16  -7.667582E-04
  33    3.529957E-04   1.870008E-09   3.705972E-03   2.284581E-09  -1.427914E-03
  34    3.529947E-04  -1.870008E-09   3.705972E-03  -2.284581E-09  -1.427914E-03
  35   -1.283940E-05  -2.349504E-08  -5.010748E-04  -1.569363E-08   1.237933E-03
  36    1.281757E-05  -2.349503E-08   5.010748E-04  -1.569363E-08  -1.237933E-03
   
            21             22             23             24             25
  21    2.436515E-01
  22    3.150783E-02   2.436515E-01
  23    4.052011E-02   4.052011E-02   3.404209E-01
  24   -1.502749E-02   1.502749E-02  -1.331400E-15   4.785619E-02
  25   -4.067154E-03  -4.208043E-03  -1.216344E-02  -1.865302E-08   3.352783E-01
  26   -4.208043E-03  -4.067154E-03  -1.216344E-02   1.865302E-08  -2.450731E-04
  27   -2.093587E-03  -2.093587E-03   3.526598E-03  -3.207556E-16  -6.426083E-03
  28    4.646364E-03   4.646364E-03   1.289961E-02   2.151336E-16  -2.850781E-04
  29    1.640066E-03   1.640074E-03   4.002353E-03  -1.759673E-04   3.445269E-04
  30    1.640074E-03   1.640066E-03   4.002353E-03   1.759673E-04   3.445288E-04
  31   -6.509179E-02  -8.148240E-03   5.559476E-02  -7.812920E-03   5.988785E-04
  32   -2.721102E-04  -2.721102E-04  -2.017299E-03  -3.973670E-16  -1.386784E-05
  33   -2.049804E-03  -2.049806E-03  -7.306471E-03  -4.742838E-05   6.507789E-04
  34   -2.049806E-03  -2.049804E-03  -7.306471E-03   4.742838E-05   6.507822E-04
  35   -5.558000E-03   4.460332E-03  -8.434733E-04   1.598374E-02  -6.719396E-04
  36   -4.460332E-03   5.558000E-03   8.434733E-04   1.598374E-02   6.719321E-04
   
            26             27             28             29             30
  26    3.352783E-01
  27   -6.426083E-03   2.539435E-01
  28   -2.850781E-04   7.870683E-03   2.489813E-01
  29    3.445288E-04   2.327465E-03   4.244538E-02   2.469548E-01
  30    3.445269E-04   2.327465E-03   4.244538E-02   4.484735E-02   2.469548E-01
  31    6.849665E-04  -4.029642E-03  -3.626410E-04   4.003017E-04   4.003128E-04
  32   -1.386784E-05  -6.317823E-04   2.496213E-05  -1.260076E-04  -1.260076E-04
  33    6.507822E-04  -3.663226E-03  -9.328977E-04  -4.467980E-06  -9.221288E-05
  34    6.507789E-04  -3.663226E-03  -9.328977E-04  -9.221288E-05  -4.467980E-06
  35   -6.719321E-04  -5.775527E-04  -6.626085E-02   1.612805E-03   6.724321E-02
  36    6.719396E-04   5.775527E-04   6.626085E-02  -6.724321E-02  -1.612805E-03
   
            31             32             33             34             35
  31    2.361290E-01
  32    7.549346E-04   3.345561E-01
  33    1.022928E-03   5.469165E-05   3.364515E-01
  34    1.022920E-03   5.469165E-05   8.364378E-04   3.364515E-01
  35   -2.960927E-03  -1.444419E-04  -4.085305E-04  -3.611002E-04   2.200284E-01
  36   -2.247692E-03   1.444419E-04   3.611002E-04   4.085305E-04  -1.005622E-01
   
            36
  36    2.200284E-01
   
  
  Hessian eigenvalues: 
    1.43336E-02    2.18563E-02    2.96683E-02    3.50509E-02    8.40077E-02
    8.63852E-02    1.12015E-01    1.33471E-01    1.35642E-01    1.80248E-01
    2.20079E-01    2.37279E-01    2.39925E-01    2.52871E-01    2.62135E-01
    2.68936E-01    2.75086E-01    2.87622E-01    3.20035E-01    3.25931E-01
    3.32578E-01    3.34472E-01    3.34972E-01    3.35416E-01    3.35523E-01
    3.35535E-01    3.35615E-01    3.36656E-01    3.40490E-01    3.87447E-01
    3.94670E-01    3.96868E-01    4.78767E-01    6.00295E-01    7.58878E-01
    9.32357E-01
  
   Hessian eigenvector descriptions:

  1)   C1-O7-C8-H9(  8) -0.70670
      C1-O7-C8-C11(  9) -0.70599

  2)  C2-C1-O7-C8( 11) -0.70721
      O6-C1-O7-C8( 19) -0.70674

  3)  H3-C2-C1-O7( 17) -0.96029

  4)  O7-C8-C11-H12( 24) -0.92578

  5)  H3-C1-C2-H5( 16) -0.59443
      H3-C1-C2-H4( 15) -0.59443
         C1-C2-H4(  3) -0.33236
         C1-C2-H5(  4)  0.33236
      H3-C2-C1-O7( 17) -0.25492

  6)  H12-C8-C11-H14( 36)  0.56612
      H12-C8-C11-H13( 35)  0.56476
          C8-C11-H13( 29)  0.32178
          C8-C11-H14( 30) -0.32046
       O7-C8-C11-H12( 24)  0.28993
           O7-C8-H10( 22) -0.16908

  7)  H9-O7-C8-H10( 31)  0.77826

  8)      C8-C11-H12( 28) -0.68006
      H12-C8-C11-H14( 36)  0.36683
      H12-C8-C11-H13( 35) -0.36384
          C8-C11-H13( 29)  0.34041
          C8-C11-H14( 30)  0.33753

  9)     C1-C2-H3(  2) -0.68727
      H3-C1-C2-H5( 16)  0.35036
      H3-C1-C2-H4( 15) -0.35036
         C1-C2-H4(  3)  0.34645
         C1-C2-H5(  4)  0.34645

 10)   O7-C8-H9( 21) -0.74408
      O7-C8-H10( 22)  0.51644

 11)   C1-O7-C8(  7)  0.57578
          O7-C8( 20) -0.46495
         C8-C11( 27)  0.40542
       C2-C1-O7( 10)  0.20965
          C1-O7(  6) -0.17866
       O6-C1-O7( 18) -0.16830

 12)     C1-C2-H4(  3) -0.61730
         C1-C2-H5(  4)  0.61729
      H3-C1-C2-H4( 15)  0.33015
      H3-C1-C2-H5( 16)  0.33015

 13)      C8-C11-H13( 29)  0.60729
          C8-C11-H14( 30) -0.60469
      H12-C8-C11-H13( 35) -0.34952
      H12-C8-C11-H14( 36) -0.34845

 14)  C8-C11( 27) -0.84152

 15)  C1-C2(  1)  0.86380

 16)      C2-C1-O7( 10)  0.55398
          O6-C1-O7( 18) -0.53742
          C1-O7-C8(  7) -0.45553
             C1-C2(  1)  0.26432
            C8-C11( 27)  0.22277
             O7-C8( 20)  0.18648

 17)     O7-C8-H10( 22) -0.67281
          O7-C8-H9( 21) -0.42834
      H9-O7-C8-H10( 31)  0.38147
         O7-C8-C11( 23)  0.37335

 18)  O6-C1-O7-C8( 19) -0.69501
      C2-C1-O7-C8( 11)  0.69467

 19)      O7-C8( 20)  0.75550
       C1-O7-C8(  7)  0.42099
      O7-C8-C11( 23) -0.25598
       C1-C2-H5(  4) -0.15164
       C1-C2-H4(  3) -0.15163
          C1-C2(  1)  0.14480

 20)   C1-C2-H4(  3)  0.48850
       C1-C2-H5(  4)  0.48849
       C1-C2-H3(  2)  0.47839
      O7-C8-C11( 23) -0.31567
       C1-O7-C8(  7)  0.26250
         C8-H10( 26) -0.14715

 21)  C8-C11-H12( 28) -0.44234
      C8-C11-H13( 29) -0.41864
      C8-C11-H14( 30) -0.41858
          C8-H10( 26)  0.34256
           C8-H9( 25)  0.34161
       O7-C8-C11( 23)  0.20141

 22)  C11-H12( 32) -0.90423

 23)      C8-H10( 26) -0.50826
           C8-H9( 25) -0.50731
         C11-H12( 32)  0.40580
      C8-C11-H12( 28) -0.30978
      C8-C11-H14( 30) -0.30379
      C8-C11-H13( 29) -0.30378

 24)  C2-H4( 13) -0.70711
      C2-H5( 14)  0.70711

 25)   C8-H9( 25)  0.70741
      C8-H10( 26) -0.70676

 26)    C2-H5( 14)  0.54825
        C2-H4( 13)  0.54825
      C11-H14( 34) -0.43906
      C11-H13( 33) -0.43905

 27)  C11-H13( 33)  0.70712
      C11-H14( 34) -0.70709

 28)  C11-H14( 34) -0.52063
      C11-H13( 33) -0.52060
        C2-H5( 14) -0.40957
        C2-H4( 13) -0.40957

 29)  C2-H3( 12) -0.97880

 30)       O7-C8-C11( 23) -0.49597
               C1-O7(  6)  0.37451
      H12-C8-C11-H13( 35) -0.30320
      H12-C8-C11-H14( 36)  0.30241
               O7-C8( 20) -0.28275
          C8-C11-H14( 30) -0.20504

 31)  H12-C8-C11-H14( 36) -0.47469
      H12-C8-C11-H13( 35)  0.47436
          C8-C11-H12( 28) -0.36751
         H3-C1-C2-H4( 15) -0.30474
         H3-C1-C2-H5( 16)  0.30474
               C1-O7(  6)  0.20388

 32)     H3-C1-C2-H5( 16) -0.51038
         H3-C1-C2-H4( 15)  0.51038
            C1-C2-H3(  2) -0.41479
           O7-C8-C11( 23) -0.23504
               C1-O7(  6)  0.21887
      H12-C8-C11-H14( 36) -0.20465

 33)  C1-O7(  6)  0.82464

 34)   C1-O7-C8-H9(  8) -0.60394
      C1-O7-C8-C11(  9)  0.58568
      H9-O7-C8-H10( 31) -0.44325
          O7-C8-H9( 21)  0.24300
         O7-C8-H10( 22) -0.16666
         O7-C8-C11( 23) -0.08575

 35)  O6-C1-O7( 18) -0.71232
      C2-C1-O7( 10) -0.69345

 36)  C1-O6(  5) -0.97946
  
  Hessian eigenvector classifications: 
  torsion  torsion  torsion  torsion  torsion
  torsion  torsion  bend     bend     bend   
  bend     bend     bend     stretch  stretch
  bend     bend     torsion  stretch  bend   
  bend     stretch  stretch  stretch  stretch
  stretch  stretch  stretch  stretch  bend   
  torsion  torsion  stretch  torsion  bend   
  stretch
  
  Hessian eigenvector treatment:
  positive  positive  positive  positive  positive
  positive  positive  positive  positive  positive
  positive  positive  positive  positive  positive
  positive  positive  positive  positive  positive
  positive  positive  positive  positive  positive
  positive  positive  positive  positive  positive
  positive  positive  positive  positive  positive
  positive
  
  gradient maximum:        3.0960E-04 *  (  1.3500E-03 )
  gradient rms:            8.7883E-05 #  (  9.0000E-04 )
  Max XYZ Displacement:    1.372722470329713E-003
  RMS XYZ Displacement:    5.913008092205970E-004
  
 Display of coordinate labels using both atom labels and atom numbers:
   #  var      coord (using atom labels)      coord (using atom #)
 --- ---- ----------------------------------- --------------------
   1    1                               C1-C2                  1-2
   2    2                            C1-C2-H3                1-2-3
   3    3                            C1-C2-H4                1-2-4
   4    4                            C1-C2-H5                1-2-5
   5    5                               C1-O6                  1-6
   6    6                               C1-O7                  1-7
   7    7                            C1-O7-C8                1-7-8
   8    8                         C1-O7-C8-H9              1-7-8-9
   9    9                        C1-O7-C8-C11             1-7-8-11
  10   10                            C2-C1-O7                2-1-7
  11   11                         C2-C1-O7-C8              2-1-7-8
  12   12                               C2-H3                  2-3
  13   13                               C2-H4                  2-4
  14   14                               C2-H5                  2-5
  15   15                         H3-C1-C2-H4              3-1-2-4
  16   16                         H3-C1-C2-H5              3-1-2-5
  17   17                         H3-C2-C1-O7              3-2-1-7
  18   18                            O6-C1-O7                6-1-7
  19   19                         O6-C1-O7-C8              6-1-7-8
  20   20                               O7-C8                  7-8
  21   21                            O7-C8-H9                7-8-9
  22   22                           O7-C8-H10               7-8-10
  23   23                           O7-C8-C11               7-8-11
  24   24                       O7-C8-C11-H12            7-8-11-12
  25   25                               C8-H9                  8-9
  26   26                              C8-H10                 8-10
  27   27                              C8-C11                 8-11
  28   28                          C8-C11-H12              8-11-12
  29   29                          C8-C11-H13              8-11-13
  30   30                          C8-C11-H14              8-11-14
  31   31                        H9-O7-C8-H10             9-7-8-10
  32   32                             C11-H12                11-12
  33   33                             C11-H13                11-13
  34   34                             C11-H14                11-14
  35   35                      H12-C8-C11-H13           12-8-11-13
  36   36                      H12-C8-C11-H14           12-8-11-14
  
 optimization summary- units are hartrees, bohr, and radians:
   #  var          coord        old geom  gradient    step   new geom 
 --- ----  ------------------  --------- --------- --------- ---------
   1    1                 1-2    2.85660 -0.000026   0.00004   2.85664
   2    2               1-2-3    1.90949  0.000012   0.00000   1.90949
   3    3               1-2-4    1.92264 -0.000021   0.00011   1.92275
   4    4               1-2-5    1.92264 -0.000021   0.00011   1.92275
   5    5                 1-6    2.28947 -0.000310   0.00023   2.28970
   6    6                 1-7    2.55619 -0.000101   0.00029   2.55648
   7    7               1-7-8    2.02181  0.000136  -0.00060   2.02121
   8    8             1-7-8-9   -1.01929  0.000000  -0.00008  -1.01937
   9    9            1-7-8-11    3.14159  0.000000   0.00000   3.14159
  10   10               2-1-7    1.93569  0.000236  -0.00076   1.93493
  11   11             2-1-7-8    3.14159  0.000000   0.00000   3.14159
  12   12                 2-3    2.06086 -0.000007  -0.00002   2.06084
  13   13                 2-4    2.06926 -0.000019   0.00000   2.06926
  14   14                 2-5    2.06926 -0.000019   0.00000   2.06926
  15   15             3-1-2-4    2.10987  0.000002  -0.00002   2.10985
  16   16             3-1-2-5   -2.10987 -0.000002   0.00002  -2.10985
  17   17             3-2-1-7    3.14159  0.000000   0.00000   3.14159
  18   18               6-1-7    2.15686 -0.000146   0.00061   2.15747
  19   19             6-1-7-8    0.00000  0.000000   0.00000   0.00000
  20   20                 7-8    2.73240 -0.000036   0.00028   2.73269
  21   21               7-8-9    1.89941  0.000080  -0.00023   1.89919
  22   22              7-8-10    1.89941  0.000080  -0.00023   1.89919
  23   23              7-8-11    1.87655  0.000219  -0.00063   1.87591
  24   24           7-8-11-12    3.14159  0.000000   0.00000   3.14159
  25   25                 8-9    2.06908  0.000002  -0.00011   2.06897
  26   26                8-10    2.06908  0.000002  -0.00011   2.06897
  27   27                8-11    2.86737  0.000100  -0.00043   2.86694
  28   28             8-11-12    1.91720 -0.000009   0.00009   1.91729
  29   29             8-11-13    1.93633 -0.000007   0.00005   1.93638
  30   30             8-11-14    1.93633 -0.000007   0.00005   1.93638
  31   31            9-7-8-10    2.03858 -0.000018   0.00015   2.03873
  32   32               11-12    2.07030  0.000005  -0.00004   2.07026
  33   33               11-13    2.06891 -0.000019   0.00000   2.06890
  34   34               11-14    2.06891 -0.000019   0.00000   2.06890
  35   35          12-8-11-13    2.09041  0.000015  -0.00004   2.09037
  36   36          12-8-11-14   -2.09041 -0.000015   0.00004  -2.09037
  
  step size:   0.00152  trust radius:   0.30000
  displacement maximum:    7.6165E-04 #  (  5.4000E-03 )
  displacement rms:        2.5341E-04 #  (  3.6000E-03 )
  predicted energy change:    -3.4645E-07    geom step:   1.5205E-03    full step:   1.5205E-03
  
  ********************************************************
  **           Geometry optimization complete           **
  ********************************************************
  
  center of mass moved by:
     x:     0.0000E+00     y:     0.0000E+00     z:     0.0000E+00
  
  after reorientation, center of mass moved by:
     x:     0.0000E+00     y:     0.0000E+00     z:     0.0000E+00
  
  final geometry: 
                                   angstroms
  atom               x                 y                 z
  C1           -0.1114777953      0.9940682653      0.0000000000 
  C2            0.9242477544      2.0951372504      0.0000000000 
  H3            0.4232829068      3.0638251607      0.0000000000 
  H4            1.5671638833      2.0084695883      0.8821458054 
  H5            1.5671638833      2.0084695883     -0.8821458054 
  O6           -1.3119884518      1.1571211622      0.0000000000 
  O7            0.4781947185     -0.2233140648      0.0000000000 
  C8           -0.4182422241     -1.3578202224      0.0000000000 
  H9           -1.0633690481     -1.2984305478      0.8826711660 
  H10          -1.0633690481     -1.2984305478     -0.8826711660 
  C11           0.4339252246     -2.6132722526      0.0000000000 
  H12          -0.2097888732     -3.4997668295      0.0000000000 
  H13           1.0737902255     -2.6519278771     -0.8875269057 
  H14           1.0737902255     -2.6519278771      0.8875269057 
   
  principal moments of inertia:
        amu*angstrom^2:       60.29173      243.21952      294.05788
                g*cm^2: 1.00116845E-38 4.03875798E-38 4.88294936E-38
   
  rotational constants:
               cm^(-1):     0.27960105     0.06931035     0.05732760
                   GHz:     8.38222846     2.07787213     1.71863807
   
  Connectivity table:
                 C1       C2       H3       H4       H5       O6       O7      
  C1              0
  C2              1        0
  H3              2        1        0
  H4              2        1        2        0
  H5              2        1        2        2        0
  O6              1        2        3        3        3        0
  O7              1        2        3        3        3        2        0
  C8              2        4        4        4        4        3        1
  H9              3        4        4        4        4        3        2
  H10             3        4        4        4        4        3        2
  C11             3        4        4        4        4        4        2
  H12             4        4        4        4        4        4        3
  H13             4        4        4        4        4        4        3
  H14             4        4        4        4        4        4        3
                 C8       H9       H10      C11      H12      H13      H14     
  C8              0
  H9              1        0
  H10             1        2        0
  C11             1        2        2        0
  H12             2        3        3        1        0
  H13             2        3        3        1        2        0
  H14             2        3        3        1        2        2        0
  
 
  bond lengths (angstroms):
 
 C1      -C2      :   1.511648      C1      -O6      :   1.211533
 C1      -O7      :   1.352676      C2      -H3      :   1.090560
 C2      -H4      :   1.095004      C2      -H5      :   1.095004
 O7      -C8      :   1.445926      C8      -H9      :   1.094908
 C8      -H10     :   1.094908      C8      -C11     :   1.517349
 C11     -H12     :   1.095555      C11     -H13     :   1.094818
 C11     -H14     :   1.094818
 
  bond angles:
 
 O6      -C1      -C2      : 125.513871  O7      -C1      -C2      : 110.907066
 O7      -C1      -O6      : 123.579063  H3      -C2      -C1      : 109.405453
 H4      -C2      -C1      : 110.159398  H4      -C2      -H3      : 109.877649
 H5      -C2      -C1      : 110.159398  H5      -C2      -H3      : 109.877649
 H5      -C2      -H4      : 107.338357  C8      -O7      -C1      : 115.841259
 H9      -C8      -O7      : 108.828309  H10     -C8      -O7      : 108.828309
 H10     -C8      -H9      : 107.444847  C11     -C8      -O7      : 107.518141
 C11     -C8      -H9      : 112.072965  C11     -C8      -H10     : 112.072965
 H12     -C11     -C8      : 109.847695  H13     -C11     -C8      : 110.943639
 H13     -C11     -H12     : 108.350789  H14     -C11     -C8      : 110.943639
 H14     -C11     -H12     : 108.350789  H14     -C11     -H13     : 108.321307
 
  torsional angles:
 
 C1      -O7      -C8      -H9      : -58.401035
 C1      -O7      -C8      -H10     :  58.401035
 C1      -O7      -C8      -C11     : 180.000000
 C2      -C1      -O7      -C8      : 180.000000
 H3      -C2      -C1      -O6      :   0.000001
 H3      -C2      -C1      -O7      : 180.000000
 H4      -C2      -C1      -O6      : 120.886684
 H4      -C2      -C1      -O7      : -59.113316
 H5      -C2      -C1      -O6      :-120.886684
 H5      -C2      -C1      -O7      :  59.113316
 O6      -C1      -O7      -C8      :   0.000000
 O7      -C8      -C11     -H12     : 180.000000
 O7      -C8      -C11     -H13     : -60.228104
 O7      -C8      -C11     -H14     :  60.228104
 H9      -C8      -C11     -H12     :  60.449318
 H9      -C8      -C11     -H13     :-179.778786
 H9      -C8      -C11     -H14     : -59.322578
 H10     -C8      -C11     -H12     : -60.449318
 H10     -C8      -C11     -H13     :  59.322578
 H10     -C8      -C11     -H14     : 179.778786
 
  nuclear repulsion energy.......     242.862654021 hartrees
  -------------------------------------------------
 /  end of geometry optimization iteration   1   /
 -------------------------------------------------
   
  end of program geopt
   
   
  start of program onee
  smallest eigenvalue of S:    4.040E-03
  number of canonical orbitals.....          106
  end of program onee
   
   
  start of program probe
  end of program probe
   
   
  start of program grid
   
  number of gridpoints: 
     atom         C1        C2        H3        H4        H5        O6        O7        C8
  grid # 1        52        43        42        73         0        67        63        47
  grid # 2        55        47        67       109         0        73        67        52
  grid # 3       112        90       130       222         0       156       143        98
  grid # 4       198       160       262       442         0       285       254       169
  grid # 5        12         5       230       388         0       181        48         5
  grid # 6      2430      2430      2430      4304         0      2430      2430      2430
  grid # 7       756       756       756      1192         0       756       756       756
  grid # 8      3001      3001      3001      5226         0      3001      3001      3001
  grid # 9      3756      3756      3033      5378         0      5752      5752      3756
  grid #10       426       426       464       744         0       441       441       426
   
  number of gridpoints: 
     atom         H9       H10       C11       H12       H13       H14     total
  grid # 1        70         0        43        42         0        72       614
  grid # 2       109         0        47        66         0       111       803
  grid # 3       218         0        89       132         0       222      1612
  grid # 4       442         0       159       262         0       443      3076
  grid # 5       315         0         5       226         0       362      1777
  grid # 6      4304         0      2430      2430         0      4304     32352
  grid # 7      1192         0       756       756         0      1192      9624
  grid # 8      5226         0      3001      3001         0      5226     39686
  grid # 9      5378         0      3756      3033         0      5378     48728
  grid #10       744         0       426       464         0       744      5746
   
  end of program grid
   
   
  start of program rwr
  end of program rwr
   
   
  start of program ch
  gridpoints used for charge fit         1647
    out of a possible maximum of         1777
  
   Electrostatic potential fitting constrained to reproduce
     total charge:                yes
     dipole moment:               no 
     traceless quadrupole moment: no 
     traceless octapole moment:   no 
  
  Atomic charges from electrostatic potential: 
   
 Atom       C1           C2           H3           H4           H5      
 Charge    0.81283     -0.58678      0.15765      0.16490      0.16490
   
 Atom       O6           O7           C8           H9           H10     
 Charge   -0.54680     -0.46959      0.38861     -0.00832     -0.00832
   
 Atom       C11          H12          H13          H14     
 Charge   -0.36776      0.08382      0.10742      0.10742
  
  sum of atomic charges:     0.000000
   
 RMS Error   6.21E-04 hartrees
 
  end of program ch
   
   
  start of program post
  Writing input files for PBF
  end of program post
   


Pbf Version 4.00

Molecular surface area:      120.33681   [A2]
Reaction field energy:        -9.24224   [kT]

Solvent-accessible surface area:  269.60407 [A2]
Cavity energy:                      4.05658 [kT]

   
  start of program solv
   number of surface charges from PBF    1652
   sum of surface charges      0.00022
   
  nuclear repulsion energy.......     242.862654021 hartrees
  end of program solv
   
   
   
  start of program scf 
  
       i  u  d  i  g                   
       t  p  i  c  r                                 RMS    maximum
       e  d  i  u  i                       energy  density   DIIS  
       r  t  s  t  d       total energy    change  change    error 
  
etot   1  N  N  2  U    -307.72568490369           7.3E-04  6.6E-03
etot   2  Y  Y  6  M    -307.72654381153  8.6E-04  1.7E-04  4.3E-03
etot   3  Y  Y  6  M    -307.72687136334  3.3E-04  5.8E-05  7.4E-04
etot   4  Y  Y  6  M    -307.72689206924  2.1E-05  1.7E-05  4.1E-04
etot   5  Y  Y  6  M    -307.72689785304  5.8E-06  5.2E-06  1.6E-04
etot   6  N  Y  2  U    -307.72689659951 -1.3E-06  3.3E-06  7.9E-05
etot   7  Y  N  6  M    -307.72689654265 -5.7E-08  0.0E+00  0.0E+00
  
  
 Energy components, in hartrees:
   (A)  Total zero-electron terms....     243.16087884672
   (B)    Nuclear-nuclear............     242.86265402092
   (C)    Nuclear-solvent............       0.29822482581
   (E)  Total one-electron terms.....    -899.64882158192
   (F)    Electron-nuclear...........   -1204.23132720540
   (G)    Electron-solvent...........      -0.31886325957
   (H)    Kinetic....................     304.90136888306
   (I)  Total two-electron terms.....     348.76104619255
   (J)    Coulomb....................     390.63514158934
   (K)    Exchange+Correlation.......     -41.87409539679
   (L)  Electronic energy............    -550.88777538937  (E+I)
   (N)  Total quantum mech. energy...    -307.72689654265  (A+L)
   (O)  Gas phase energy.............    -307.70746521401
   (P)  Solution phase energy........    -307.71067738721  (Q+R+S+T)
   (Q)    Total solute energy........    -307.70625810888  (N-C-G)
   (R)    Total solvent energy.......      -0.01031921688  (C/2+G/2)
   (S)    Solute cavity energy.......       0.00382825677
   (T)    First shell corr. factor...       0.00207168178
   (U)  Reorganization energy........       0.00120710513  (Q-O)
   (V)  Solvation energy.............      -0.00321217319  (P-O)
  
 SCFE:  Solution phase energy: DFT       -307.71067738721 hartrees
        SCF iterations:   7
  
 
 HOMO energy:    -0.28044
 LUMO energy:     0.00796
 
  Orbital energies/symmetry label: 
  -19.19368 Ap       -19.14363 Ap       -10.32310 Ap       -10.24006 Ap     
  -10.19101 Ap       -10.18099 Ap        -1.10436 Ap        -1.01990 Ap     
   -0.78264 Ap        -0.73398 Ap        -0.63558 Ap        -0.56779 Ap     
   -0.49408 App       -0.49389 Ap        -0.47224 Ap        -0.44197 App    
   -0.41320 Ap        -0.39919 Ap        -0.38752 App       -0.38232 Ap     
   -0.35534 App       -0.35227 Ap        -0.30489 App       -0.28044 Ap     
    0.00796 App        0.10467 Ap         0.11739 Ap         0.13627 Ap     
    0.15199 App        0.15317 Ap         0.17153 Ap         0.17968 App    
    0.18450 Ap         0.20132 App    
 
  end of program scf 
   
   
  start of program sole
    SCRF                   solvation energy
  iteration          Hartrees            kcal/mol
     0               0.0000000            0.0000
     1              -0.0032122           -2.0157
  
  solvation energy not yet converged... 
  
  end of program sole
   
   
  start of program ch
  gridpoints used for charge fit         1647
    out of a possible maximum of         1647
  
   Electrostatic potential fitting constrained to reproduce
     total charge:                yes
     dipole moment:               no 
     traceless quadrupole moment: no 
     traceless octapole moment:   no 
  
  Atomic charges from electrostatic potential: 
   
 Atom       C1           C2           H3           H4           H5      
 Charge    0.87458     -0.61773      0.16724      0.18238      0.18238
   
 Atom       O6           O7           C8           H9           H10     
 Charge   -0.61938     -0.50688      0.41152     -0.00394     -0.00394
   
 Atom       C11          H12          H13          H14     
 Charge   -0.38605      0.09566      0.11208      0.11208
  
  sum of atomic charges:     0.000000
   
 RMS Error   6.35E-04 hartrees
 
  end of program ch
   
   
  start of program post
  Writing input files for PBF
  end of program post
   


Pbf Version 4.00

Molecular surface area:      120.33681   [A2]
Reaction field energy:       -12.27507   [kT]

Solvent-accessible surface area:  269.60407 [A2]
Cavity energy:                      4.05658 [kT]

   
  start of program solv
   number of surface charges from PBF    1652
   sum of surface charges      0.00024
   
  nuclear repulsion energy.......     242.862654021 hartrees
  end of program solv
   
   
   
  start of program scf 
  
       i  u  d  i  g                   
       t  p  i  c  r                                 RMS    maximum
       e  d  i  u  i                       energy  density   DIIS  
       r  t  s  t  d       total energy    change  change    error 
  
etot   1  N  N  2  U    -307.73011435627           1.4E-04  1.2E-03
etot   2  Y  Y  6  M    -307.73045178593  3.4E-04  3.5E-05  8.5E-04
etot   3  Y  Y  6  M    -307.73046549502  1.4E-05  1.3E-05  1.5E-04
etot   4  Y  Y  6  M    -307.73046694641  1.5E-06  2.9E-06  6.1E-05
etot   5  Y  N  6  M    -307.73046761302  6.7E-07  0.0E+00  0.0E+00
  
  
 Energy components, in hartrees:
   (A)  Total zero-electron terms....     243.21188039421
   (B)    Nuclear-nuclear............     242.86265402092
   (C)    Nuclear-solvent............       0.34922637330
   (E)  Total one-electron terms.....    -899.72608945356
   (F)    Electron-nuclear...........   -1204.25513182156
   (G)    Electron-solvent...........      -0.37359824102
   (H)    Kinetic....................     304.90264060902
   (I)  Total two-electron terms.....     348.78374144633
   (J)    Coulomb....................     390.65930436289
   (K)    Exchange+Correlation.......     -41.87556291656
   (L)  Electronic energy............    -550.94234800723  (E+I)
   (N)  Total quantum mech. energy...    -307.73046761302  (A+L)
   (O)  Gas phase energy.............    -307.70746521401
   (P)  Solution phase energy........    -307.71238174060  (Q+R+S+T)
   (Q)    Total solute energy........    -307.70609574530  (N-C-G)
   (R)    Total solvent energy.......      -0.01218593386  (C/2+G/2)
   (S)    Solute cavity energy.......       0.00382825677
   (T)    First shell corr. factor...       0.00207168178
   (U)  Reorganization energy........       0.00136946872  (Q-O)
   (V)  Solvation energy.............      -0.00491652659  (P-O)
  
 SCFE:  Solution phase energy: DFT       -307.71238174060 hartrees
        SCF iterations:   5
  
 
 HOMO energy:    -0.28295
 LUMO energy:     0.00630
 
  Orbital energies/symmetry label: 
  -19.19475 Ap       -19.14610 Ap       -10.32513 Ap       -10.24004 Ap     
  -10.19037 Ap       -10.18011 Ap        -1.10601 Ap        -1.02207 Ap     
   -0.78263 Ap        -0.73357 Ap        -0.63532 Ap        -0.56839 Ap     
   -0.49553 Ap        -0.49466 App       -0.47377 Ap        -0.44189 App    
   -0.41300 Ap        -0.39908 Ap        -0.38713 App       -0.38189 Ap     
   -0.35602 App       -0.35278 Ap        -0.30622 App       -0.28295 Ap     
    0.00630 App        0.10527 Ap         0.11811 Ap         0.13728 Ap     
    0.15247 App        0.15352 Ap         0.17258 Ap         0.18098 App    
    0.18502 Ap         0.20182 App    
 
  end of program scf 
   
   
  start of program sole
    SCRF                   solvation energy
  iteration          Hartrees            kcal/mol
     0               0.0000000            0.0000
     1              -0.0032122           -2.0157
     2              -0.0049165           -3.0852
  
  solvation energy not yet converged... 
  
  end of program sole
   
   
  start of program ch
  gridpoints used for charge fit         1647
    out of a possible maximum of         1647
  
   Electrostatic potential fitting constrained to reproduce
     total charge:                yes
     dipole moment:               no 
     traceless quadrupole moment: no 
     traceless octapole moment:   no 
  
  Atomic charges from electrostatic potential: 
   
 Atom       C1           C2           H3           H4           H5      
 Charge    0.87991     -0.61958      0.16718      0.18568      0.18568
   
 Atom       O6           O7           C8           H9           H10     
 Charge   -0.63144     -0.50910      0.41337     -0.00353     -0.00353
   
 Atom       C11          H12          H13          H14     
 Charge   -0.38705      0.09821      0.11210      0.11210
  
  sum of atomic charges:     0.000000
   
 RMS Error   6.39E-04 hartrees
 
  end of program ch
   
   
  start of program post
  Writing input files for PBF
  end of program post
   


Pbf Version 4.00

Molecular surface area:      120.33681   [A2]
Reaction field energy:       -12.87125   [kT]

Solvent-accessible surface area:  269.60407 [A2]
Cavity energy:                      4.05658 [kT]

   
  start of program solv
   number of surface charges from PBF    1652
   sum of surface charges      0.00025
   
  nuclear repulsion energy.......     242.862654021 hartrees
  end of program solv
   
   
   
  start of program scf 
  
       i  u  d  i  g                   
       t  p  i  c  r                                 RMS    maximum
       e  d  i  u  i                       energy  density   DIIS  
       r  t  s  t  d       total energy    change  change    error 
  
etot   1  N  N  2  U    -307.73106304999           3.4E-05  2.4E-04
etot   2  Y  Y  6  M    -307.73106248121 -5.7E-07  8.4E-06  1.8E-04
etot   3  Y  Y  6  M    -307.73106387358  1.4E-06  3.1E-06  3.2E-05
etot   4  Y  N  6  M    -307.73106394992  7.6E-08  0.0E+00  0.0E+00
  
  
 Energy components, in hartrees:
   (A)  Total zero-electron terms....     243.22078225290
   (B)    Nuclear-nuclear............     242.86265402092
   (C)    Nuclear-solvent............       0.35812823198
   (E)  Total one-electron terms.....    -899.73872620376
   (F)    Electron-nuclear...........   -1204.25740811026
   (G)    Electron-solvent...........      -0.38320276483
   (H)    Kinetic....................     304.90188467133
   (I)  Total two-electron terms.....     348.78688000094
   (J)    Coulomb....................     390.66250832775
   (K)    Exchange+Correlation.......     -41.87562832681
   (L)  Electronic energy............    -550.95184620281  (E+I)
   (N)  Total quantum mech. energy...    -307.73106394992  (A+L)
   (O)  Gas phase energy.............    -307.70746521401
   (P)  Solution phase energy........    -307.71262674493  (Q+R+S+T)
   (Q)    Total solute energy........    -307.70598941707  (N-C-G)
   (R)    Total solvent energy.......      -0.01253726642  (C/2+G/2)
   (S)    Solute cavity energy.......       0.00382825677
   (T)    First shell corr. factor...       0.00207168178
   (U)  Reorganization energy........       0.00147579695  (Q-O)
   (V)  Solvation energy.............      -0.00516153092  (P-O)
  
 SCFE:  Solution phase energy: DFT       -307.71262674493 hartrees
        SCF iterations:   4
  
 
 HOMO energy:    -0.28347
 LUMO energy:     0.00597
 
  Orbital energies/symmetry label: 
  -19.19515 Ap       -19.14665 Ap       -10.32549 Ap       -10.24005 Ap     
  -10.19018 Ap       -10.17988 Ap        -1.10636 Ap        -1.02253 Ap     
   -0.78262 Ap        -0.73345 Ap        -0.63527 Ap        -0.56854 Ap     
   -0.49586 Ap        -0.49479 App       -0.47406 Ap        -0.44187 App    
   -0.41294 Ap        -0.39904 Ap        -0.38702 App       -0.38179 Ap     
   -0.35617 App       -0.35288 Ap        -0.30651 App       -0.28347 Ap     
    0.00597 App        0.10536 Ap         0.11823 Ap         0.13752 Ap     
    0.15253 App        0.15355 Ap         0.17279 Ap         0.18129 App    
    0.18510 Ap         0.20189 App    
 
  end of program scf 
   
   
  start of program sole
    SCRF                   solvation energy
  iteration          Hartrees            kcal/mol
     0               0.0000000            0.0000
     1              -0.0032122           -2.0157
     2              -0.0049165           -3.0852
     3              -0.0051615           -3.2389
  
  solvation energy not yet converged... 
  
  end of program sole
   
   
  start of program ch
  gridpoints used for charge fit         1647
    out of a possible maximum of         1647
  
   Electrostatic potential fitting constrained to reproduce
     total charge:                yes
     dipole moment:               no 
     traceless quadrupole moment: no 
     traceless octapole moment:   no 
  
  Atomic charges from electrostatic potential: 
   
 Atom       C1           C2           H3           H4           H5      
 Charge    0.88035     -0.61978      0.16683      0.18649      0.18649
   
 Atom       O6           O7           C8           H9           H10     
 Charge   -0.63379     -0.50873      0.41346     -0.00358     -0.00358
   
 Atom       C11          H12          H13          H14     
 Charge   -0.38716      0.09876      0.11211      0.11211
  
  sum of atomic charges:     0.000000
   
 RMS Error   6.39E-04 hartrees
 
  end of program ch
   
   
  start of program post
  Writing input files for PBF
  end of program post
   


Pbf Version 4.00

Molecular surface area:      120.33681   [A2]
Reaction field energy:       -12.99261   [kT]

Solvent-accessible surface area:  269.60407 [A2]
Cavity energy:                      4.05658 [kT]

   
  start of program solv
   number of surface charges from PBF    1652
   sum of surface charges      0.00023
   
  nuclear repulsion energy.......     242.862654021 hartrees
  end of program solv
   
   
   
  start of program scf 
  
       i  u  d  i  g                   
       t  p  i  c  r                                 RMS    maximum
       e  d  i  u  i                       energy  density   DIIS  
       r  t  s  t  d       total energy    change  change    error 
  
etot   1  N  N  2  U    -307.73118365635           7.9E-06  5.0E-05
etot   2  Y  Y  6  M    -307.73118330666 -3.5E-07  2.0E-06  3.9E-05
etot   3  Y  N  6  M    -307.73118378507  4.8E-07  0.0E+00  0.0E+00
  
  
 Energy components, in hartrees:
   (A)  Total zero-electron terms....     243.22219263020
   (B)    Nuclear-nuclear............     242.86265402092
   (C)    Nuclear-solvent............       0.35953860928
   (E)  Total one-electron terms.....    -899.74140533377
   (F)    Electron-nuclear...........   -1204.25876127740
   (G)    Electron-solvent...........      -0.38475597752
   (H)    Kinetic....................     304.90211192115
   (I)  Total two-electron terms.....     348.78802891851
   (J)    Coulomb....................     390.66371021456
   (K)    Exchange+Correlation.......     -41.87568129606
   (L)  Electronic energy............    -550.95337641526  (E+I)
   (N)  Total quantum mech. energy...    -307.73118378507  (A+L)
   (O)  Gas phase energy.............    -307.70746521401
   (P)  Solution phase energy........    -307.71267516239  (Q+R+S+T)
   (Q)    Total solute energy........    -307.70596641683  (N-C-G)
   (R)    Total solvent energy.......      -0.01260868412  (C/2+G/2)
   (S)    Solute cavity energy.......       0.00382825677
   (T)    First shell corr. factor...       0.00207168178
   (U)  Reorganization energy........       0.00149879719  (Q-O)
   (V)  Solvation energy.............      -0.00520994838  (P-O)
  
 SCFE:  Solution phase energy: DFT       -307.71267516239 hartrees
        SCF iterations:   3
  
 
 HOMO energy:    -0.28358
 LUMO energy:     0.00593
 
  Orbital energies/symmetry label: 
  -19.19508 Ap       -19.14682 Ap       -10.32551 Ap       -10.24007 Ap     
  -10.19012 Ap       -10.17984 Ap        -1.10639 Ap        -1.02260 Ap     
   -0.78260 Ap        -0.73342 Ap        -0.63524 Ap        -0.56854 Ap     
   -0.49592 Ap        -0.49480 App       -0.47410 Ap        -0.44185 App    
   -0.41293 Ap        -0.39902 Ap        -0.38698 App       -0.38175 Ap     
   -0.35620 App       -0.35287 Ap        -0.30654 App       -0.28358 Ap     
    0.00593 App        0.10538 Ap         0.11827 Ap         0.13759 Ap     
    0.15253 App        0.15355 Ap         0.17283 Ap         0.18138 App    
    0.18512 Ap         0.20191 App    
 
  end of program scf 
   
   
  start of program sole
    SCRF                   solvation energy
  iteration          Hartrees            kcal/mol
     0               0.0000000            0.0000
     1              -0.0032122           -2.0157
     2              -0.0049165           -3.0852
     3              -0.0051615           -3.2389
     4              -0.0052099           -3.2693
  
  stopping: solvation energy converged
  
  iterations:   4    sfinal:     -3.2693 kcal/mol
  
  end of program sole
   
   
  start of program ch
  gridpoints used for charge fit         1647
    out of a possible maximum of         1647
  
   Electrostatic potential fitting constrained to reproduce
     total charge:                yes
     dipole moment:               no 
     traceless quadrupole moment: no 
     traceless octapole moment:   no 
  
  Atomic charges from electrostatic potential: 
   
 Atom       C1           C2           H3           H4           H5      
 Charge    0.88023     -0.61977      0.16667      0.18672      0.18672
   
 Atom       O6           O7           C8           H9           H10     
 Charge   -0.63423     -0.50852      0.41342     -0.00362     -0.00362
   
 Atom       C11          H12          H13          H14     
 Charge   -0.38711      0.09885      0.11213      0.11213
  
  sum of atomic charges:     0.000000
   
 RMS Error   6.39E-04 hartrees
 
  end of program ch
   
   
  start of program post
  Writing input files for PBF
  end of program post
   


Pbf Version 4.00
TotalF=[-0.136892 -0.099355 -0.002751] FlatTetra=0
Molecular surface area:      120.33681   [A2]
Reaction field energy:       -13.01847   [kT]

Solvent-accessible surface area:  269.60407 [A2]
Cavity energy:                      4.05658 [kT]

   
  start of program der1a
  end of program der1a
   
   
  start of program dsolv
   
  end of program dsolv
   
   
   
  start of program rwr
  end of program rwr
   
   
  start of program der1b
   
  forces (hartrees/bohr) : total     
   
 atom  label           x              y              z
 ---- --------   -------------  -------------  -------------
    1 C1          1.702174E-02  -9.679362E-04   0.000000E+00
    2 C2         -1.634560E-03  -6.169668E-04   0.000000E+00
    3 H3          7.297194E-05   8.380630E-04   0.000000E+00
    4 H4         -1.430169E-04  -2.773104E-04   8.721966E-04
    5 H5         -1.430169E-04  -2.773104E-04  -8.721966E-04
    6 O6         -8.305814E-03  -3.469757E-05   0.000000E+00
    7 O7         -3.457476E-03   6.336345E-03   0.000000E+00
    8 C8         -3.567769E-03  -5.274437E-03   0.000000E+00
    9 H9          6.171501E-04  -3.221782E-04   2.447570E-04
   10 H10         6.171501E-04  -3.221782E-04  -2.447570E-04
   11 C11        -4.123469E-05   2.209730E-04   0.000000E+00
   12 H12        -2.787518E-04   3.964077E-04   0.000000E+00
   13 H13         7.210837E-05  -3.106193E-04  -6.899740E-04
   14 H14         7.210837E-05  -3.106193E-04   6.899740E-04
 -------------   -------------  -------------  -------------
     total        9.015931E-04  -9.224644E-04   0.000000E+00
   
  end of program der1b
   
   
  start of program geopt   1
  
  geometry optimization step  1
  energy:            -307.71267516239 hartrees
   
  final hessian
   
             1              2              3              4              5
   1    2.673531E-01
   2    5.661289E-03   2.472659E-01
   3    4.624261E-03   4.210605E-02   2.422386E-01
   4    4.624261E-03   4.210605E-02   4.021521E-02   2.422386E-01
   5    3.133674E-02   4.811817E-03   1.246602E-02   1.246602E-02   9.109536E-01
   6    2.532178E-02   2.299023E-03   2.739215E-03   2.739215E-03   7.147920E-02
   7    5.531298E-03   1.290587E-02   6.665428E-03   6.665428E-03  -7.856520E-03
   8    8.538262E-16   2.135201E-17   3.490455E-08  -3.490455E-08  -1.003429E-16
   9   -2.219524E-15  -9.959481E-16  -1.495906E-09   1.495907E-09  -1.445025E-15
  10   -2.356550E-03   7.431368E-03   3.252938E-03   3.252938E-03  -3.550264E-02
  11    5.466886E-16   1.784868E-16   1.792306E-06  -1.792306E-06   5.685556E-16
  12    4.194481E-04  -8.732698E-04   2.396902E-04   2.396902E-04   1.040562E-02
  13    7.611785E-04  -7.430002E-04   6.361948E-04   5.287922E-04   1.206174E-02
  14    7.611785E-04  -7.430002E-04   5.287922E-04   6.361948E-04   1.206174E-02
  15    5.234025E-04  -6.615323E-02  -8.267085E-04   6.507799E-02   9.701032E-05
  16   -5.234025E-04   6.615323E-02  -6.507799E-02   8.267085E-04  -9.701032E-05
  17   -1.127774E-16  -6.162334E-17  -1.867000E-04   1.867000E-04  -8.023096E-17
  18    3.696608E-03  -4.629442E-04   2.451681E-03   2.451681E-03   3.406015E-02
  19   -3.875887E-16  -7.314028E-16  -1.763631E-06   1.763631E-06  -8.448103E-16
  20    1.642123E-02   4.262095E-06  -7.927820E-04  -7.927820E-04   3.282798E-02
  21    5.060630E-04   4.638509E-03   2.773335E-03   2.773321E-03  -4.230996E-03
  22    5.060630E-04   4.638509E-03   2.773321E-03   2.773335E-03  -4.230996E-03
  23    5.223707E-03   1.244588E-02   5.872650E-03   5.872650E-03  -1.729331E-02
  24   -7.394259E-17  -1.979753E-16  -5.787175E-09   5.787175E-09  -1.821460E-16
  25   -9.416035E-04  -1.688105E-04   1.210431E-03   1.210428E-03   1.087980E-02
  26   -9.416035E-04  -1.688105E-04   1.210428E-03   1.210431E-03   1.087980E-02
  27    4.890936E-03   7.418186E-03   4.088905E-03   4.088905E-03  -3.680444E-04
  28    6.298474E-03   1.382476E-03   2.574967E-04   2.574967E-04   7.655360E-03
  29    1.352833E-03  -3.629038E-04  -4.131334E-04  -4.131348E-04   1.746266E-03
  30    1.352833E-03  -3.629038E-04  -4.131348E-04  -4.131334E-04   1.746266E-03
  31   -2.617020E-03  -7.620341E-05   5.513028E-04   5.512679E-04  -4.165617E-04
  32    1.949487E-03  -1.776686E-04   4.367795E-04   4.367795E-04   1.021395E-02
  33   -4.972670E-05  -9.244123E-04   4.323811E-04   4.323807E-04   1.061260E-02
  34   -4.972670E-05  -9.244123E-04   4.323807E-04   4.323811E-04   1.061260E-02
  35   -3.662101E-04   5.446946E-04   2.491571E-04   2.491641E-04  -2.221425E-03
  36    3.662101E-04  -5.446946E-04  -2.491641E-04  -2.491571E-04   2.221425E-03
   
             6              7              8              9             10
   6    4.574060E-01
   7    4.263265E-02   2.769628E-01
   8    2.625764E-15   7.582910E-16   2.481388E-01
   9   -8.013609E-16  -9.471590E-16  -2.284033E-01   2.378560E-01
  10    1.069179E-02   6.207600E-04   2.710627E-15  -1.416740E-15   5.043417E-01
  11   -1.112849E-15   9.959481E-16   1.789429E-07  -1.352132E-07  -1.445025E-15
  12   -4.837614E-04  -4.226952E-03   1.624353E-16   9.874153E-16  -5.247259E-03
  13    9.422696E-04  -4.665259E-03  -4.341875E-09   6.302950E-09  -5.669176E-03
  14    9.422696E-04  -4.665259E-03   4.341875E-09  -6.302940E-09  -5.669176E-03
  15    8.582214E-04   1.160712E-03   4.371951E-08  -1.612217E-08   3.219735E-04
  16   -8.582214E-04  -1.160712E-03   4.371951E-08  -1.612217E-08  -3.219735E-04
  17   -2.276003E-16  -8.953342E-16   8.733648E-08  -5.407896E-08   7.388838E-16
  18    2.263254E-02   1.234611E-02   2.040324E-15  -2.124838E-15   2.424217E-01
  19    1.193127E-15   4.757479E-16   2.940000E-04  -7.262611E-08   3.274291E-16
  20    6.162336E-03   3.871214E-02   1.992631E-15  -4.063891E-15   1.726254E-02
  21    1.212341E-02  -2.763767E-03  -5.694355E-02   5.644588E-02  -3.892807E-03
  22    1.212341E-02  -2.763767E-03   5.694355E-02  -5.644588E-02  -3.892807E-03
  23    2.697600E-02   6.343706E-03   4.664507E-15  -3.369102E-15   1.987672E-03
  24   -4.407824E-16  -2.367898E-16  -1.562584E-02   1.562584E-02  -4.614364E-16
  25    2.464277E-03  -1.023915E-02  -8.608798E-05   5.356124E-09  -1.015082E-02
  26    2.464277E-03  -1.023915E-02   8.608798E-05  -5.356124E-09  -1.015082E-02
  27    1.942669E-02   3.150589E-03   1.659652E-15  -1.608912E-15  -8.382581E-04
  28    4.906182E-03   1.337763E-02   7.029151E-17  -1.837211E-16   7.915860E-03
  29   -1.095270E-03   3.952237E-03  -1.106236E-08  -3.177888E-08   2.590622E-03
  30   -1.095270E-03   3.952237E-03   1.106236E-08   3.177887E-08   2.590622E-03
  31    1.861564E-03  -7.203583E-03   1.240694E-01  -1.142016E-01  -5.159920E-03
  32    1.284505E-03  -3.060252E-04  -1.395738E-16   1.405332E-15  -2.618708E-03
  33    1.043709E-04  -5.870773E-03   7.681259E-09  -6.438693E-10  -6.334270E-03
  34    1.043709E-04  -5.870773E-03  -7.681261E-09   6.438719E-10  -6.334270E-03
  35    8.048105E-04  -7.241418E-04  -5.208618E-03   5.208587E-03  -4.039299E-04
  36   -8.048105E-04   7.241418E-04  -5.208618E-03   5.208587E-03   4.039299E-04
   
            11             12             13             14             15
  11    1.524475E-01
  12   -1.060642E-15   3.409223E-01
  13    1.035520E-06   6.401771E-04   3.361262E-01
  14   -1.035520E-06   6.401771E-04   7.099740E-04   3.361262E-01
  15    6.193494E-03  -3.152884E-04  -3.565658E-04  -3.065942E-04   2.229751E-01
  16    6.193494E-03   3.152884E-04   3.065942E-04   3.565658E-04  -1.060816E-01
  17    1.857971E-02  -1.461816E-15  -4.997452E-05   4.997452E-05   1.219307E-02
  18   -2.984147E-16   3.523477E-03   3.947831E-03   3.947831E-03   4.356091E-05
  19   -1.306594E-01   1.709082E-15  -1.039155E-06   1.039155E-06  -6.193470E-03
  20    2.526910E-16  -2.107642E-03  -1.119213E-03  -1.119213E-03   7.628314E-04
  21    4.567343E-08  -1.396488E-03  -1.657704E-03  -1.657700E-03   2.152485E-04
  22   -4.567344E-08  -1.396488E-03  -1.657700E-03  -1.657704E-03   2.152287E-04
  23   -2.443151E-15  -5.852074E-03  -6.323700E-03  -6.323700E-03   1.006768E-03
  24   -1.069895E-07   1.013729E-15   1.992344E-09  -1.992343E-09  -1.411068E-08
[...]
  31    2.369282E-01
  32    4.773738E-04   3.345407E-01
  33    1.986554E-03   3.729184E-04   3.373055E-01
  34    2.262863E-03   3.729185E-04   1.651071E-03   3.373055E-01
  35   -2.318082E-03   4.129382E-04   9.996357E-04  -4.186363E-04   2.195237E-01
  36   -2.831388E-03  -4.129380E-04   4.186357E-04  -9.996361E-04  -9.916797E-02
   
            36
  36    2.195237E-01
   
  
Hessian heredity:  new Hessian
             0          -1          -2
   3    1.262E-05   1.580E-19   1.262E-05
   2    1.411E-05   1.411E-05
   1    1.334E-05
overall gradient noise =  1.334E-05
  
 Energy-change errors:
             0          -1          -2
   3    2.210E-05  -1.890E-05  -4.031E-05
   2    1.923E-05  -2.143E-05
   1    3.132E-05
overall energy noise =  2.203E-05
  
 Displacements:
             0          -1          -2
   3    0.000E+00   1.226E-02   4.542E-02
   2    1.226E-02   4.061E-02
   1    4.542E-02
  
 Gradient difference:
             0          -1          -2
   3    0.000E+00   3.793E-03   1.346E-02
   2    0.000E+00   1.254E-02
   1    0.000E+00
  
 Weights:
             0          -1          -2
   3    0.000E+00   8.031E-01   5.240E-01
   2    0.000E+00   4.644E-01
  
  
  Hessian eigenvalues: 
    1.40505E-02    2.18486E-02    2.94864E-02    3.53890E-02    8.40713E-02
    8.62877E-02    1.15147E-01    1.33965E-01    1.35413E-01    1.80130E-01
    1.98282E-01    2.38012E-01    2.40084E-01    2.49440E-01    2.59713E-01
    2.67230E-01    2.78206E-01    2.91176E-01    2.93008E-01    3.29178E-01
    3.33481E-01    3.35321E-01    3.35491E-01    3.35595E-01    3.35612E-01
    3.35959E-01    3.36162E-01    3.40220E-01    3.60771E-01    3.74976E-01
    3.91831E-01    3.98113E-01    4.75790E-01    6.00821E-01    7.28169E-01
    9.30252E-01
  
   Hessian eigenvector descriptions:

  1)  C1-O7-C8-C11(  9)  0.70572
       C1-O7-C8-H9(  8)  0.70493

  2)  C2-C1-O7-C8( 11)  0.71272
      O6-C1-O7-C8( 19)  0.69886

  3)  H3-C2-C1-O7( 17) -0.95937

  4)  O7-C8-C11-H12( 24) -0.92833

  5)  H3-C1-C2-H4( 15) -0.59457
      H3-C1-C2-H5( 16) -0.59457
         C1-C2-H5(  4)  0.33151
         C1-C2-H4(  3) -0.33148
      H3-C2-C1-O7( 17) -0.25418

  6)  H12-C8-C11-H13( 35)  0.56623
      H12-C8-C11-H14( 36)  0.56571
          C8-C11-H14( 30) -0.32828
          C8-C11-H13( 29)  0.32708
       O7-C8-C11-H12( 24)  0.28265
           O7-C8-H10( 22) -0.16101

  7)  H9-O7-C8-H10( 31)  0.78217

  8)      C8-C11-H12( 28) -0.69014
      H12-C8-C11-H13( 35) -0.37734
      H12-C8-C11-H14( 36)  0.37634
          C8-C11-H14( 30)  0.33610
          C8-C11-H13( 29)  0.33510

  9)     C1-C2-H3(  2) -0.69522
      H3-C1-C2-H5( 16)  0.35569
         C1-C2-H4(  3)  0.35569
         C1-C2-H5(  4)  0.35568
      H3-C1-C2-H4( 15) -0.35562

 10)   O7-C8-H9( 21)  0.76307
      O7-C8-H10( 22) -0.47480

 11)         O7-C8( 20) -0.66185
            C8-C11( 27)  0.38765
         O7-C8-H10( 22)  0.37988
          C1-O7-C8(  7)  0.27645
         O7-C8-C11( 23)  0.18106
      H9-O7-C8-H10( 31) -0.17482

 12)     C1-C2-H4(  3) -0.61876
         C1-C2-H5(  4)  0.61786
      H3-C1-C2-H4( 15)  0.33118
      H3-C1-C2-H5( 16)  0.33094

 13)      C8-C11-H13( 29)  0.60580
          C8-C11-H14( 30) -0.59783
      H12-C8-C11-H13( 35) -0.35323
      H12-C8-C11-H14( 36) -0.35062

 14)      C1-O7-C8(  7)  0.45993
          C2-C1-O7( 10)  0.41211
         O7-C8-H10( 22) -0.37323
             C1-C2(  1)  0.35458
             C1-O7(  6) -0.32079
          O6-C1-O7( 18) -0.27258

 15)  C8-C11( 27) -0.85313

 16)     C1-C2(  1)  0.80856
      C1-O7-C8(  7) -0.51531

 17)      C2-C1-O7( 10)  0.60052
          O6-C1-O7( 18) -0.58121
          C1-O7-C8(  7) -0.32218
         O7-C8-H10( 22)  0.20526
         O7-C8-C11( 23) -0.19273
             C1-O7(  6)  0.17318

 18)  O6-C1-O7-C8( 19) -0.69257
      C2-C1-O7-C8( 11)  0.68251

 19)     O7-C8-C11( 23) -0.55724
          C1-O7-C8(  7)  0.38621
         O7-C8-H10( 22)  0.35332
      H9-O7-C8-H10( 31) -0.29444
             C1-O7(  6) -0.25975
             O7-C8( 20)  0.23754

 20)  C1-C2-H4(  3)  0.54868
      C1-C2-H5(  4)  0.54864
      C1-C2-H3(  2)  0.53136

 21)     C11-H12( 32)  0.59634
      C8-C11-H12( 28) -0.42279
      C8-C11-H13( 29) -0.40483
      C8-C11-H14( 30) -0.40480

 22)  C11-H13( 33)  0.46349
      C11-H14( 34)  0.43512
      C11-H12( 32)  0.43072
        C2-H5( 14) -0.43059
        C2-H4( 13) -0.40056

 23)  C11-H14( 34) -0.55823
      C11-H13( 33)  0.45723
        C2-H5( 14) -0.41182
       C8-H10( 26)  0.37196
        C2-H4( 13)  0.29582
        C8-H9( 25) -0.27835

 24)       C2-H5( 14) -0.54411
           C2-H4( 13) -0.44959
         C11-H12( 32) -0.36895
           C8-H9( 25)  0.33010
         C11-H13( 33) -0.26281
      C8-C11-H12( 28) -0.22121

 25)   C2-H4( 13)  0.63788
       C2-H5( 14) -0.47104
      C8-H10( 26) -0.44351
       C8-H9( 25)  0.37479

 26)  C11-H13( 33)  0.49209
       C8-H10( 26) -0.48105
      C11-H14( 34) -0.44773
        C8-H9( 25)  0.44446
        C2-H4( 13) -0.26021
        C2-H5( 14)  0.24035

 27)     C11-H12( 32) -0.53031
         C11-H14( 34)  0.39545
           C8-H9( 25) -0.39224
         C11-H13( 33)  0.36942
          C8-H10( 26) -0.31775
      C8-C11-H12( 28) -0.20796

 28)  C2-H3( 12)  0.93020

 29)       C8-H9( 25) -0.43795
          C8-H10( 26) -0.43518
           C2-H3( 12) -0.33712
         C11-H14( 34) -0.28276
         C11-H13( 33) -0.28170
           O7-C8( 20) -0.23513

 30)       C1-O7(  6)  0.71023
       O7-C8-C11( 23) -0.43511
        O7-C8-H9( 21) -0.30010
       O7-C8-H10( 22) -0.29676
        C1-O7-C8(  7)  0.18691
           C1-O6(  5) -0.17592

 31)  H12-C8-C11-H13( 35) -0.58445
      H12-C8-C11-H14( 36)  0.58427
          C8-C11-H12( 28)  0.38751
          C8-C11-H14( 30) -0.24351
          C8-C11-H13( 29) -0.24345

 32)  H3-C1-C2-H5( 16) -0.60047
      H3-C1-C2-H4( 15)  0.60047
         C1-C2-H3(  2) -0.42404

 33)       O7-C8( 20)  0.52136
       O7-C8-C11( 23)  0.49747
           C1-O7(  6)  0.38453
        C1-O7-C8(  7)  0.31260
        O7-C8-H9( 21)  0.25589
       O7-C8-H10( 22)  0.21200

 34)   C1-O7-C8-H9(  8) -0.60264
      C1-O7-C8-C11(  9)  0.58446
      H9-O7-C8-H10( 31) -0.44361
          O7-C8-H9( 21)  0.23000
         O7-C8-H10( 22) -0.17703
         O7-C8-C11( 23) -0.10235

 35)  O6-C1-O7( 18)  0.72146
      C2-C1-O7( 10)  0.63431

 36)  C1-O6(  5) -0.96191
  
  Hessian eigenvector classifications: 
  torsion  torsion  torsion  torsion  torsion
  torsion  torsion  bend     bend     bend   
  stretch  bend     bend     bend     stretch
  stretch  bend     torsion  bend     bend   
  bend     stretch  stretch  stretch  stretch
  stretch  stretch  stretch  stretch  stretch
  torsion  torsion  bend     torsion  bend   
  stretch
  
  Hessian eigenvector treatment:
  positive  positive  positive  positive  positive
  positive  positive  positive  positive  positive
  positive  positive  positive  positive  positive
  positive  positive  positive  positive  positive
  positive  positive  positive  positive  positive
  positive  positive  positive  positive  positive
  positive  positive  positive  positive  positive
  positive
  
  energy change:          -7.1502E-06 #  (  1.5000E-04 )
  gradient maximum:        6.1357E-04 *  (  1.3500E-03 )
  gradient rms:            1.9949E-04 *  (  9.0000E-04 )
  Max XYZ Displacement:    2.628929376036648E-003
  RMS XYZ Displacement:    1.057002478379636E-003
  
 Display of coordinate labels using both atom labels and atom numbers:
   #  var      coord (using atom labels)      coord (using atom #)
 --- ---- ----------------------------------- --------------------
   1    1                               C1-C2                  1-2
   2    2                            C1-C2-H3                1-2-3
   3    3                            C1-C2-H4                1-2-4
   4    4                            C1-C2-H5                1-2-5
   5    5                               C1-O6                  1-6
   6    6                               C1-O7                  1-7
   7    7                            C1-O7-C8                1-7-8
   8    8                         C1-O7-C8-H9              1-7-8-9
   9    9                        C1-O7-C8-C11             1-7-8-11
  10   10                            C2-C1-O7                2-1-7
  11   11                         C2-C1-O7-C8              2-1-7-8
  12   12                               C2-H3                  2-3
  13   13                               C2-H4                  2-4
  14   14                               C2-H5                  2-5
  15   15                         H3-C1-C2-H4              3-1-2-4
  16   16                         H3-C1-C2-H5              3-1-2-5
  17   17                         H3-C2-C1-O7              3-2-1-7
  18   18                            O6-C1-O7                6-1-7
  19   19                         O6-C1-O7-C8              6-1-7-8
  20   20                               O7-C8                  7-8
  21   21                            O7-C8-H9                7-8-9
  22   22                           O7-C8-H10               7-8-10
  23   23                           O7-C8-C11               7-8-11
  24   24                       O7-C8-C11-H12            7-8-11-12
  25   25                               C8-H9                  8-9
  26   26                              C8-H10                 8-10
  27   27                              C8-C11                 8-11
  28   28                          C8-C11-H12              8-11-12
  29   29                          C8-C11-H13              8-11-13
  30   30                          C8-C11-H14              8-11-14
  31   31                        H9-O7-C8-H10             9-7-8-10
  32   32                             C11-H12                11-12
  33   33                             C11-H13                11-13
  34   34                             C11-H14                11-14
  35   35                      H12-C8-C11-H13           12-8-11-13
  36   36                      H12-C8-C11-H14           12-8-11-14
  
 optimization summary- units are hartrees, bohr, and radians:
   #  var          coord        old geom  gradient    step   new geom 
 --- ----  ------------------  --------- --------- --------- ---------
   1    1                 1-2    2.84729 -0.000314   0.00117   2.84847
   2    2               1-2-3    1.91019  0.000011  -0.00010   1.91009
   3    3               1-2-4    1.91951 -0.000137   0.00063   1.92014
   4    4               1-2-5    1.91951 -0.000137   0.00063   1.92014
   5    5                 1-6    2.30397  0.000191   0.00009   2.30407
   6    6                 1-7    2.54144  0.000568  -0.00191   2.53952
   7    7               1-7-8    2.03968  0.000223  -0.00094   2.03874
   8    8             1-7-8-9   -1.02354  0.000000  -0.00014  -1.02368
   9    9            1-7-8-11    3.14159  0.000000   0.00000   3.14159
  10   10               2-1-7    1.95494 -0.000395   0.00064   1.95558
  11   11             2-1-7-8    3.14159  0.000000   0.00000   3.14159
  12   12                 2-3    2.06307  0.000030  -0.00013   2.06294
  13   13                 2-4    2.07080 -0.000038   0.00010   2.07090
  14   14                 2-5    2.07080 -0.000038   0.00010   2.07090
  15   15             3-1-2-4    2.10654 -0.000066  -0.00001   2.10654
  16   16             3-1-2-5   -2.10654  0.000066   0.00001  -2.10654
  17   17             3-2-1-7    3.14159  0.000000   0.00000   3.14159
  18   18               6-1-7    2.14456 -0.000614   0.00121   2.14577
  19   19             6-1-7-8    0.00000  0.000000   0.00000   0.00000
  20   20                 7-8    2.75111 -0.000463   0.00241   2.75352
  21   21               7-8-9    1.89544  0.000072  -0.00064   1.89480
  22   22              7-8-10    1.89544  0.000072  -0.00064   1.89480
  23   23              7-8-11    1.87424  0.000186  -0.00079   1.87345
  24   24           7-8-11-12    3.14159  0.000000   0.00000   3.14159
  25   25                 8-9    2.06729 -0.000050  -0.00007   2.06721
  26   26                8-10    2.06729 -0.000050  -0.00007   2.06721
  27   27                8-11    2.86614  0.000186  -0.00096   2.86517
  28   28             8-11-12    1.90785 -0.000067   0.00046   1.90831
  29   29             8-11-13    1.93940  0.000107  -0.00042   1.93898
  30   30             8-11-14    1.93940  0.000107  -0.00042   1.93898
  31   31            9-7-8-10    2.04708 -0.000027   0.00028   2.04736
  32   32               11-12    2.06973 -0.000118   0.00039   2.07013
  33   33               11-13    2.07044  0.000023  -0.00015   2.07029
  34   34               11-14    2.07044  0.000023  -0.00015   2.07029
  35   35          12-8-11-13    2.08500  0.000005   0.00006   2.08506
  36   36          12-8-11-14   -2.08500 -0.000005  -0.00006  -2.08506
  
  step size:   0.00421  trust radius:   0.30000
  displacement maximum:    2.4139E-03 *  (  5.4000E-03 )
  displacement rms:        7.0167E-04 #  (  3.6000E-03 )
  predicted energy change:    -2.2704E-06    geom step:   4.2100E-03    full step:   4.2100E-03
  
  ********************************************************
  **           Geometry optimization complete           **
  ********************************************************
  
  center of mass moved by:
     x:     0.0000E+00     y:     0.0000E+00     z:     0.0000E+00
  
  after reorientation, center of mass moved by:
     x:     0.0000E+00     y:     0.0000E+00     z:     0.0000E+00
  
  final geometry: 
                                   angstroms
  atom               x                 y                 z
  C1           -0.0994243518      0.9963896821      0.0000000000 
  C2            0.9264188306      2.0999573557      0.0000000000 
  H3            0.4198677484      3.0670568965      0.0000000000 
  H4            1.5664051062      2.0162590027      0.8855674235 
  H5            1.5664051062      2.0162590027     -0.8855674235 
  O6           -1.3073719988      1.1617225581      0.0000000000 
  O7            0.4706527389     -0.2216791702      0.0000000000 
  C8           -0.4267321878     -1.3680319663      0.0000000000 
  H9           -1.0666403036     -1.3102410343      0.8853963596 
  H10          -1.0666403036     -1.3102410343     -0.8853963596 
  C11           0.4336287384     -2.6170869864      0.0000000000 
  H12          -0.2121345238     -3.5017188436      0.0000000000 
  H13           1.0715406962     -2.6570449005     -0.8898733290 
  H14           1.0715406962     -2.6570449005      0.8898733290 
   
  principal moments of inertia:
        amu*angstrom^2:       60.14267      244.46404      295.09271
                g*cm^2: 9.98693131E-39 4.05942367E-38 4.90013312E-38
   
  rotational constants:
               cm^(-1):     0.28029405     0.06895751     0.05712656
                   GHz:     8.40300428     2.06729412     1.71261116
   
  Connectivity table:
                 C1       C2       H3       H4       H5       O6       O7      
  C1              0
  C2              1        0
  H3              2        1        0
  H4              2        1        2        0
  H5              2        1        2        2        0
  O6              1        2        3        3        3        0
  O7              1        2        3        3        3        2        0
  C8              2        4        4        4        4        3        1
  H9              3        4        4        4        4        3        2
  H10             3        4        4        4        4        3        2
  C11             3        4        4        4        4        4        2
  H12             4        4        4        4        4        4        3
  H13             4        4        4        4        4        4        3
  H14             4        4        4        4        4        4        3
                 C8       H9       H10      C11      H12      H13      H14     
  C8              0
  H9              1        0
  H10             1        2        0
  C11             1        2        2        0
  H12             2        3        3        1        0
  H13             2        3        3        1        2        0
  H14             2        3        3        1        2        2        0
  
 
  bond lengths (angstroms):
 
 C1      -C2      :   1.506724      C1      -O6      :   1.219210
 C1      -O7      :   1.344872      C2      -H3      :   1.091731
 C2      -H4      :   1.095818      C2      -H5      :   1.095818
 O7      -C8      :   1.455824      C8      -H9      :   1.093960
 C8      -H10     :   1.093960      C8      -C11     :   1.516694
 C11     -H12     :   1.095255      C11     -H13     :   1.095629
 C11     -H14     :   1.095629
 
  bond angles:
 
 O6      -C1      -C2      : 125.115908  O7      -C1      -C2      : 112.009995
 O7      -C1      -O6      : 122.874097  H3      -C2      -C1      : 109.445575
 H4      -C2      -C1      : 109.979727  H4      -C2      -H3      : 109.794161
 H5      -C2      -C1      : 109.979727  H5      -C2      -H3      : 109.794161
 H5      -C2      -H4      : 107.827942  C8      -O7      -C1      : 116.865143
 H9      -C8      -O7      : 108.600611  H10     -C8      -O7      : 108.600611
 H10     -C8      -H9      : 108.064889  C11     -C8      -O7      : 107.386103
 C11     -C8      -H9      : 112.044247  C11     -C8      -H10     : 112.044247
 H12     -C11     -C8      : 109.311877  H13     -C11     -C8      : 111.119420
 H13     -C11     -H12     : 108.290106  H14     -C11     -C8      : 111.119420
 H14     -C11     -H12     : 108.290106  H14     -C11     -H13     : 108.623499
 
  torsional angles:
 
 C1      -O7      -C8      -H9      : -58.644599
 C1      -O7      -C8      -H10     :  58.644599
 C1      -O7      -C8      -C11     : 180.000000
 C2      -C1      -O7      -C8      : 180.000000
 H3      -C2      -C1      -O6      :   0.000000
 H3      -C2      -C1      -O7      : 180.000000
 H4      -C2      -C1      -O6      : 120.696096
 H4      -C2      -C1      -O7      : -59.303904
 H5      -C2      -C1      -O6      :-120.696096
 H5      -C2      -C1      -O7      :  59.303904
 O6      -C1      -O7      -C8      :   0.000000
 O7      -C8      -C11     -H12     : 180.000000
 O7      -C8      -C11     -H13     : -60.538440
 O7      -C8      -C11     -H14     :  60.538440
 H9      -C8      -C11     -H12     :  60.830832
 H9      -C8      -C11     -H13     :-179.707608
 H9      -C8      -C11     -H14     : -58.630728
 H10     -C8      -C11     -H12     : -60.830832
 H10     -C8      -C11     -H13     :  58.630728
 H10     -C8      -C11     -H14     : 179.707608
 
  nuclear repulsion energy.......     242.562587251 hartrees
  -------------------------------------------------
 /  end of geometry optimization iteration   3   /
 -------------------------------------------------
   
  end of program geopt
   
   
  start of program ch
  gridpoints used for charge fit         1653
    out of a possible maximum of         1653
  
   Electrostatic potential fitting constrained to reproduce
     total charge:                yes
     dipole moment:               no 
     traceless quadrupole moment: no 
     traceless octapole moment:   no 
  
  Atomic charges from electrostatic potential: 
   
 Atom       C1           C2           H3           H4           H5      
 Charge    0.88715     -0.62046      0.16802      0.18679      0.18679
   
 Atom       O6           O7           C8           H9           H10     
 Charge   -0.64651     -0.51202      0.41221     -0.00019     -0.00019
   
 Atom       C11          H12          H13          H14     
 Charge   -0.38561      0.09866      0.11269      0.11269
  
  sum of atomic charges:     0.000000
   
 RMS Error   6.57E-04 hartrees
 
  end of program ch
   
   
  start of program post
  Writing input files for PBF
  end of program post
   
 Total cpu seconds     user:      47.340   user+sys:      48.880
  
 Total elapsed time:    70 seconds

Job s272.solopt completed on ajax.swmed.edu at Wed Apr  4 09:56:55 2012
