CLR                                                                     
Freq      RB3LYP                                                      6-31G(d)            
Number of atoms                            I               33
Info1-9                                    I   N=           9
           7           6           0           0           0         101
           6          18        -502
Full Title                                 C   N=           1
CLR         
Route                                      C   N=           8
# B3LYP/6-31G* Opt=Calcall Geom=AllCheckpoint Guess=Read Int
egral=(Grid=UltraFine) IOp(7/33=1)  
Charge                                     I               -2
Multiplicity                               I                1
Number of electrons                        I              164
Number of alpha electrons                  I               82
Number of beta electrons                   I               82
Number of basis functions                  I              272
Number of independent functions            I              272
Number of point charges in /Mol/           I                0
Number of translation vectors              I                0
Atomic numbers                             I   N=          33
           1           6           1           6          16           1
           1           1           1           6           1           6
          16           1           1           1           1           6
           1           6          16           1           1           1
           1           6           1           6          16           1
           1           1          30
Nuclear charges                            R   N=          33
  1.00000000E+00  6.00000000E+00  1.00000000E+00  6.00000000E+00  1.60000000E+01
  1.00000000E+00  1.00000000E+00  1.00000000E+00  1.00000000E+00  6.00000000E+00
  1.00000000E+00  6.00000000E+00  1.60000000E+01  1.00000000E+00  1.00000000E+00
  1.00000000E+00  1.00000000E+00  6.00000000E+00  1.00000000E+00  6.00000000E+00
  1.60000000E+01  1.00000000E+00  1.00000000E+00  1.00000000E+00  1.00000000E+00
  6.00000000E+00  1.00000000E+00  6.00000000E+00  1.60000000E+01  1.00000000E+00
  1.00000000E+00  1.00000000E+00  3.00000000E+01
Current cartesian coordinates              R   N=          99
 -6.47759114E+00 -5.76181358E+00  2.85762677E+00 -5.86711054E+00 -4.43334323E+00
  1.36600320E+00 -7.41746765E+00 -4.23871311E+00  1.13739956E-04 -3.45619004E+00
 -5.34725322E+00  5.06860059E-02 -2.34906692E+00 -3.19231359E+00 -2.46162888E+00
 -5.54341189E+00 -2.57689813E+00  2.22204383E+00 -1.95616244E+00 -5.58041141E+00
  1.46033556E+00 -3.78922518E+00 -7.21977678E+00 -7.93905077E-01  5.97364684E+00
 -2.16855472E+00 -1.71888384E+00  6.46394121E+00 -1.37801470E+00 -3.56805406E+00
  7.88932820E+00  1.01963454E-01 -3.27399712E+00  4.09598483E+00 -2.89443118E-01
 -4.82674947E+00  2.59596133E+00  2.26910601E+00 -2.98376179E+00  7.32440685E+00
 -2.88566007E+00 -4.73006593E+00  4.58415076E+00  4.59973816E-01 -6.70574198E+00
  2.71680086E+00 -1.80797684E+00 -5.11036586E+00 -2.24448451E+00  5.32896034E+00
 -3.04944768E+00 -4.02042905E+00  5.90118225E+00 -2.15375482E+00 -3.64115117E+00
  7.59156547E+00 -1.01098266E+00 -5.03923183E+00  3.75245708E+00 -5.03868728E-01
 -2.89385135E+00  2.81618475E+00  2.08269588E+00 -5.37906118E+00  6.42280715E+00
 -3.65261025E+00 -6.85631737E+00  4.32291092E+00  3.34991816E-01 -5.40597034E+00
  2.08893468E+00 -1.68437615E+00  1.78815545E+00  3.04382122E+00  5.33026734E+00
  3.47982413E+00  2.12696723E+00  6.09203628E+00  4.82392968E+00  3.61388140E+00
  6.67981857E+00  4.64893427E+00  3.70714344E-01  4.11048041E+00  2.53964258E+00
 -2.21404338E+00  3.09313857E+00  2.91483894E+00  1.06149873E+00  7.78039240E+00
  5.19032538E+00  1.47639499E+00  2.44348327E+00  6.38666062E+00 -4.77786401E-01
  4.87883057E+00 -3.32902989E-02 -6.25887235E-02 -4.48433542E-02
Number of symbols in /Mol/                 I                0
Force Field                                I                0
Atom Types                                 C   N=          33
                                                            
                                                            
                                                            
                                                            
                                                            
                                                            
                                    
Int Atom Types                             I   N=          33
           0           0           0           0           0           0
           0           0           0           0           0           0
           0           0           0           0           0           0
           0           0           0           0           0           0
           0           0           0           0           0           0
           0           0           0
MM charges                                 R   N=          33
  0.00000000E+00  0.00000000E+00  0.00000000E+00  0.00000000E+00  0.00000000E+00
  0.00000000E+00  0.00000000E+00  0.00000000E+00  0.00000000E+00  0.00000000E+00
  0.00000000E+00  0.00000000E+00  0.00000000E+00  0.00000000E+00  0.00000000E+00
  0.00000000E+00  0.00000000E+00  0.00000000E+00  0.00000000E+00  0.00000000E+00
  0.00000000E+00  0.00000000E+00  0.00000000E+00  0.00000000E+00  0.00000000E+00
  0.00000000E+00  0.00000000E+00  0.00000000E+00  0.00000000E+00  0.00000000E+00
  0.00000000E+00  0.00000000E+00  0.00000000E+00
Integer atomic weights                     I   N=          33
           1          12           1          12          32           1
           1           1           1          12           1          12
          32           1           1           1           1          12
           1          12          32           1           1           1
           1          12           1          12          32           1
           1           1          64
Real atomic weights                        R   N=          33
  1.00782504E+00  1.20000000E+01  1.00782504E+00  1.20000000E+01  3.19720718E+01
  1.00782504E+00  1.00782504E+00  1.00782504E+00  1.00782504E+00  1.20000000E+01
  1.00782504E+00  1.20000000E+01  3.19720718E+01  1.00782504E+00  1.00782504E+00
  1.00782504E+00  1.00782504E+00  1.20000000E+01  1.00782504E+00  1.20000000E+01
  3.19720718E+01  1.00782504E+00  1.00782504E+00  1.00782504E+00  1.00782504E+00
  1.20000000E+01  1.00782504E+00  1.20000000E+01  3.19720718E+01  1.00782504E+00
  1.00782504E+00  1.00782504E+00  6.39291454E+01
Atom fragment info                         I   N=          33
           0           0           0           0           0           0
           0           0           0           0           0           0
           0           0           0           0           0           0
           0           0           0           0           0           0
           0           0           0           0           0           0
           0           0           0
Atom residue num                           I   N=          33
           0           0           0           0           0           0
           0           0           0           0           0           0
           0           0           0           0           0           0
           0           0           0           0           0           0
           0           0           0           0           0           0
           0           0           0
Nuclear spins                              I   N=          33
           1           0           1           0           0           1
           1           1           1           0           1           0
           0           1           1           1           1           0
           1           0           0           1           1           1
           1           0           1           0           0           1
           1           1           0
Nuclear ZEff                               R   N=          33
 -1.00000000E+00 -3.60000000E+00 -1.00000000E+00 -3.60000000E+00 -1.36000000E+01
 -1.00000000E+00 -1.00000000E+00 -1.00000000E+00 -1.00000000E+00 -3.60000000E+00
 -1.00000000E+00 -3.60000000E+00 -1.36000000E+01 -1.00000000E+00 -1.00000000E+00
 -1.00000000E+00 -1.00000000E+00 -3.60000000E+00 -1.00000000E+00 -3.60000000E+00
 -1.36000000E+01 -1.00000000E+00 -1.00000000E+00 -1.00000000E+00 -1.00000000E+00
 -3.60000000E+00 -1.00000000E+00 -3.60000000E+00 -1.36000000E+01 -1.00000000E+00
 -1.00000000E+00 -1.00000000E+00 -2.55000000E+01
Nuclear ZNuc                               R   N=          33
  1.00000000E+00  6.00000000E+00  1.00000000E+00  6.00000000E+00  1.60000000E+01
  1.00000000E+00  1.00000000E+00  1.00000000E+00  1.00000000E+00  6.00000000E+00
  1.00000000E+00  6.00000000E+00  1.60000000E+01  1.00000000E+00  1.00000000E+00
  1.00000000E+00  1.00000000E+00  6.00000000E+00  1.00000000E+00  6.00000000E+00
  1.60000000E+01  1.00000000E+00  1.00000000E+00  1.00000000E+00  1.00000000E+00
  6.00000000E+00  1.00000000E+00  6.00000000E+00  1.60000000E+01  1.00000000E+00
  1.00000000E+00  1.00000000E+00  3.00000000E+01
Nuclear QMom                               R   N=          33
  0.00000000E+00  0.00000000E+00  0.00000000E+00  0.00000000E+00  0.00000000E+00
  0.00000000E+00  0.00000000E+00  0.00000000E+00  0.00000000E+00  0.00000000E+00
  0.00000000E+00  0.00000000E+00  0.00000000E+00  0.00000000E+00  0.00000000E+00
  0.00000000E+00  0.00000000E+00  0.00000000E+00  0.00000000E+00  0.00000000E+00
  0.00000000E+00  0.00000000E+00  0.00000000E+00  0.00000000E+00  0.00000000E+00
  0.00000000E+00  0.00000000E+00  0.00000000E+00  0.00000000E+00  0.00000000E+00
  0.00000000E+00  0.00000000E+00  0.00000000E+00
Nuclear GFac                               R   N=          33
  2.79284600E+00  0.00000000E+00  2.79284600E+00  0.00000000E+00  0.00000000E+00
  2.79284600E+00  2.79284600E+00  2.79284600E+00  2.79284600E+00  0.00000000E+00
  2.79284600E+00  0.00000000E+00  0.00000000E+00  2.79284600E+00  2.79284600E+00
  2.79284600E+00  2.79284600E+00  0.00000000E+00  2.79284600E+00  0.00000000E+00
  0.00000000E+00  2.79284600E+00  2.79284600E+00  2.79284600E+00  2.79284600E+00
  0.00000000E+00  2.79284600E+00  0.00000000E+00  0.00000000E+00  2.79284600E+00
  2.79284600E+00  2.79284600E+00  0.00000000E+00
MicOpt                                     I   N=          33
          -1          -1          -1          -1          -1          -1
          -1          -1          -1          -1          -1          -1
          -1          -1          -1          -1          -1          -1
          -1          -1          -1          -1          -1          -1
          -1          -1          -1          -1          -1          -1
          -1          -1          -1
Number of residues                         I                0
Number of secondary structures             I                0
Redundant internal dimensions              I   N=           4
         150          32          58          60
Redundant internal coordinate indices      I   N=         600
           1           2           0           0           2           3
           0           0           2           4           0           0
           2           6           0           0           4           5
           0           0           4           7           0           0
           4           8           0           0           5          33
           0           0           9          10           0           0
          10          11           0           0          10          12
           0           0          10          14           0           0
          12          13           0           0          12          15
           0           0          12          16           0           0
          13          33           0           0          17          18
           0           0          18          19           0           0
          18          20           0           0          18          22
           0           0          20          21           0           0
          20          23           0           0          20          24
           0           0          21          33           0           0
          25          26           0           0          26          27
           0           0          26          28           0           0
          26          30           0           0          28          29
           0           0          28          31           0           0
          28          32           0           0          29          33
           0           0           1           2           3           0
           1           2           4           0           1           2
           6           0           3           2           4           0
           3           2           6           0           4           2
           6           0           2           4           5           0
           2           4           7           0           2           4
           8           0           5           4           7           0
           5           4           8           0           7           4
           8           0           4           5          33           0
           9          10          11           0           9          10
          12           0           9          10          14           0
          11          10          12           0          11          10
          14           0          12          10          14           0
          10          12          13           0          10          12
          15           0          10          12          16           0
          13          12          15           0          13          12
          16           0          15          12          16           0
          12          13          33           0          17          18
          19           0          17          18          20           0
          17          18          22           0          19          18
          20           0          19          18          22           0
          20          18          22           0          18          20
          21           0          18          20          23           0
          18          20          24           0          21          20
          23           0          21          20          24           0
          23          20          24           0          20          21
          33           0          25          26          27           0
          25          26          28           0          25          26
          30           0          27          26          28           0
          27          26          30           0          28          26
          30           0          26          28          29           0
          26          28          31           0          26          28
          32           0          29          28          31           0
          29          28          32           0          31          28
          32           0          28          29          33           0
           5          33          13           0           5          33
          21           0           5          33          29           0
          13          33          21           0          13          33
          29           0          21          33          29           0
           1           2           4           5           1           2
           4           7           1           2           4           8
           3           2           4           5           3           2
           4           7           3           2           4           8
           6           2           4           5           6           2
           4           7           6           2           4           8
           2           4           5          33           7           4
           5          33           8           4           5          33
           4           5          33          13           4           5
          33          21           4           5          33          29
           9          10          12          13           9          10
          12          15           9          10          12          16
          11          10          12          13          11          10
          12          15          11          10          12          16
          14          10          12          13          14          10
          12          15          14          10          12          16
          10          12          13          33          15          12
          13          33          16          12          13          33
          12          13          33           5          12          13
          33          21          12          13          33          29
          17          18          20          21          17          18
          20          23          17          18          20          24
          19          18          20          21          19          18
          20          23          19          18          20          24
          22          18          20          21          22          18
          20          23          22          18          20          24
          18          20          21          33          23          20
          21          33          24          20          21          33
          20          21          33           5          20          21
          33          13          20          21          33          29
          25          26          28          29          25          26
          28          31          25          26          28          32
          27          26          28          29          27          26
          28          31          27          26          28          32
          30          26          28          29          30          26
          28          31          30          26          28          32
          26          28          29          33          31          28
          29          33          32          28          29          33
          28          29          33           5          28          29
          33          13          28          29          33          21
Redundant internal coordinates             R   N=         150
  2.08865051E+00  2.07536553E+00  2.89444787E+00  2.06977650E+00  3.49015938E+00
  2.07160745E+00  2.08100720E+00  4.58245037E+00  2.06996922E+00  2.07570058E+00
  2.89422177E+00  2.08893927E+00  3.49182585E+00  2.08099605E+00  2.07087694E+00
  4.58115772E+00  2.06970593E+00  2.07537354E+00  2.89432256E+00  2.08914850E+00
  3.48849247E+00  2.08108252E+00  2.07253509E+00  4.58220137E+00  2.06945792E+00
  2.08878470E+00  2.89444406E+00  2.07484404E+00  3.48784580E+00  2.07232079E+00
  2.08086721E+00  4.59300243E+00  1.88737986E+00  1.94675273E+00  1.89740025E+00
  1.93132285E+00  1.88064791E+00  1.91865136E+00  1.97836592E+00  1.90651057E+00
  1.91266129E+00  1.90669422E+00  1.89040411E+00  1.86583437E+00  1.77456674E+00
  1.88430623E+00  1.91597129E+00  1.89532811E+00  1.93400318E+00  1.88655207E+00
  1.94609425E+00  1.97960992E+00  1.91368085E+00  1.90567232E+00  1.88963818E+00
  1.90020221E+00  1.87197021E+00  1.78462806E+00  1.88248793E+00  1.92141606E+00
  1.89290816E+00  1.93383866E+00  1.88655142E+00  1.94488333E+00  1.98825141E+00
  1.91094193E+00  1.91078451E+00  1.88774617E+00  1.89202329E+00  1.87036813E+00
  1.78060852E+00  1.89042849E+00  1.92516339E+00  1.88015739E+00  1.94406862E+00
  1.88787431E+00  1.93422879E+00  1.98786041E+00  1.90973746E+00  1.90915354E+00
  1.89521520E+00  1.88656578E+00  1.87173571E+00  1.76289557E+00  1.87477542E+00
  1.93743015E+00  1.90021912E+00  1.91387470E+00  1.93392748E+00  1.90368935E+00
 -3.14077306E+00 -1.01031593E+00  1.02841542E+00  1.04048455E+00 -3.11224363E+00
 -1.07351227E+00 -1.03476554E+00  1.09569159E+00  3.13442294E+00  1.44299778E+00
 -6.87357026E-01 -2.71371034E+00  2.85969505E+00 -1.33127625E+00  7.64522113E-01
  1.05228715E+00 -3.11630629E+00 -1.07007305E+00 -1.02746292E+00  1.08712895E+00
  3.13336219E+00 -3.12972225E+00 -1.01513038E+00  1.03110285E+00 -1.47561352E+00
  2.67952546E+00  6.49802802E-01 -8.35862758E-01 -2.94301209E+00  1.23774766E+00
  1.05921732E+00 -3.10791906E+00 -1.06223675E+00 -1.02164729E+00  1.09440164E+00
  3.14008394E+00 -3.12298080E+00 -1.00693187E+00  1.03875043E+00 -1.45595404E+00
  2.69833289E+00  6.75866045E-01 -8.63648355E-01  1.20510837E+00 -2.95738192E+00
 -1.06698993E+00  1.05754671E+00  3.10324083E+00  3.11635357E+00 -1.04229510E+00
  1.00339902E+00  1.01362678E+00  3.13816342E+00 -1.09932776E+00  1.43657554E+00
 -6.95978772E-01 -2.72111231E+00  2.90907673E+00  8.50910424E-01 -1.25756036E+00
ZRed-IntVec                                I   N=         150
           0           0           0           0           0           0
           0           0           0           0           0           0
           0           0           0           0           0           0
           0           0           0           0           0           0
           0           0           0           0           0           0
           0           0           0           0           0           0
           0           0           0           0           0           0
           0           0           0           0           0           0
           0           0           0           0           0           0
           0           0           0           0           0           0
           0           0           0           0           0           0
           0           0           0           0           0           0
           0           0           0           0           0           0
           0           0           0           0           0           0
           0           0           0           0           0           0
           0           0           0           0           0           0
           0           0           0           0           0           0
           0           0           0           0           0           0
           0           0           0           0           0           0
           0           0           0           0           0           0
           0           0           0           0           0           0
           0           0           0           0           0           0
           0           0           0           0           0           0
           0           0           0           0           0           0
           0           0           0           0           0           0
ZRed-FPVec                                 R   N=         150
  0.00000000E+00  0.00000000E+00  0.00000000E+00  0.00000000E+00  0.00000000E+00
  0.00000000E+00  0.00000000E+00  0.00000000E+00  0.00000000E+00  0.00000000E+00
  0.00000000E+00  0.00000000E+00  0.00000000E+00  0.00000000E+00  0.00000000E+00
  0.00000000E+00  0.00000000E+00  0.00000000E+00  0.00000000E+00  0.00000000E+00
  0.00000000E+00  0.00000000E+00  0.00000000E+00  0.00000000E+00  0.00000000E+00
  0.00000000E+00  0.00000000E+00  0.00000000E+00  0.00000000E+00  0.00000000E+00
  0.00000000E+00  0.00000000E+00  0.00000000E+00  0.00000000E+00  0.00000000E+00
  0.00000000E+00  0.00000000E+00  0.00000000E+00  0.00000000E+00  0.00000000E+00
  0.00000000E+00  0.00000000E+00  0.00000000E+00  0.00000000E+00  0.00000000E+00
  0.00000000E+00  0.00000000E+00  0.00000000E+00  0.00000000E+00  0.00000000E+00
  0.00000000E+00  0.00000000E+00  0.00000000E+00  0.00000000E+00  0.00000000E+00
  0.00000000E+00  0.00000000E+00  0.00000000E+00  0.00000000E+00  0.00000000E+00
  0.00000000E+00  0.00000000E+00  0.00000000E+00  0.00000000E+00  0.00000000E+00
  0.00000000E+00  0.00000000E+00  0.00000000E+00  0.00000000E+00  0.00000000E+00
  0.00000000E+00  0.00000000E+00  0.00000000E+00  0.00000000E+00  0.00000000E+00
  0.00000000E+00  0.00000000E+00  0.00000000E+00  0.00000000E+00  0.00000000E+00
  0.00000000E+00  0.00000000E+00  0.00000000E+00  0.00000000E+00  0.00000000E+00
  0.00000000E+00  0.00000000E+00  0.00000000E+00  0.00000000E+00  0.00000000E+00
  0.00000000E+00  0.00000000E+00  0.00000000E+00  0.00000000E+00  0.00000000E+00
  0.00000000E+00  0.00000000E+00  0.00000000E+00  0.00000000E+00  0.00000000E+00
  0.00000000E+00  0.00000000E+00  0.00000000E+00  0.00000000E+00  0.00000000E+00
  0.00000000E+00  0.00000000E+00  0.00000000E+00  0.00000000E+00  0.00000000E+00
  0.00000000E+00  0.00000000E+00  0.00000000E+00  0.00000000E+00  0.00000000E+00
  0.00000000E+00  0.00000000E+00  0.00000000E+00  0.00000000E+00  0.00000000E+00
  0.00000000E+00  0.00000000E+00  0.00000000E+00  0.00000000E+00  0.00000000E+00
  0.00000000E+00  0.00000000E+00  0.00000000E+00  0.00000000E+00  0.00000000E+00
  0.00000000E+00  0.00000000E+00  0.00000000E+00  0.00000000E+00  0.00000000E+00
  0.00000000E+00  0.00000000E+00  0.00000000E+00  0.00000000E+00  0.00000000E+00
  0.00000000E+00  0.00000000E+00  0.00000000E+00  0.00000000E+00  0.00000000E+00
  0.00000000E+00  0.00000000E+00  0.00000000E+00  0.00000000E+00  0.00000000E+00
ZRed-Constraint1                           R   N=         150
  2.08864957E+00  2.07536640E+00  2.89445042E+00  2.06977550E+00  3.49017130E+00
  2.07160656E+00  2.08100885E+00  4.58255038E+00  2.06996773E+00  2.07569991E+00
  2.89422347E+00  2.08893880E+00  3.49182233E+00  2.08099645E+00  2.07088337E+00
  4.58126145E+00  2.06970534E+00  2.07537204E+00  2.89432348E+00  2.08914900E+00
  3.48849836E+00  2.08108241E+00  2.07253160E+00  4.58210466E+00  2.06945705E+00
  2.08878182E+00  2.89444480E+00  2.07484694E+00  3.48784140E+00  2.07231685E+00
  2.08086487E+00  4.59296383E+00  1.88737821E+00  1.94675721E+00  1.89739798E+00
  1.93132110E+00  1.88062393E+00  1.91867508E+00  1.97836828E+00  1.90652489E+00
  1.91266114E+00  1.90667404E+00  1.89040671E+00  1.86583514E+00  1.77441332E+00
  1.88430520E+00  1.91596637E+00  1.89532552E+00  1.93401198E+00  1.88654934E+00
  1.94609645E+00  1.97963138E+00  1.91367377E+00  1.90566593E+00  1.88964688E+00
  1.90019180E+00  1.87196246E+00  1.78461508E+00  1.88248019E+00  1.92142330E+00
  1.89290882E+00  1.93383780E+00  1.88655014E+00  1.94488488E+00  1.98825484E+00
  1.91094509E+00  1.91079206E+00  1.88774525E+00  1.89201240E+00  1.87036522E+00
  1.78061092E+00  1.89042868E+00  1.92514749E+00  1.88015353E+00  1.94407434E+00
  1.88787349E+00  1.93424314E+00  1.98783499E+00  1.90972665E+00  1.90915981E+00
  1.89522809E+00  1.88656858E+00  1.87175268E+00  1.76286180E+00  1.87473846E+00
  1.93747158E+00  1.90022324E+00  1.91388371E+00  1.93391735E+00  1.90368190E+00
 -3.14069729E+00 -1.01025405E+00  1.02848637E+00  1.04056060E+00 -3.11218147E+00
 -1.07344105E+00 -1.03467371E+00  1.09576953E+00  3.13450995E+00  1.44283285E+00
 -6.87527282E-01 -2.71387206E+00  2.85896976E+00 -1.33198946E+00  7.63827925E-01
  1.05221566E+00 -3.11635715E+00 -1.07014106E+00 -1.02753550E+00  1.08707700E+00
  3.13329309E+00 -3.12979885E+00 -1.01518635E+00  1.03102974E+00 -1.47565779E+00
  2.67946984E+00  6.49757227E-01 -8.35763389E-01 -2.94294575E+00  1.23782388E+00
  1.05912965E+00 -3.10800326E+00 -1.06231828E+00 -1.02172943E+00  1.09432296E+00
  3.14000795E+00 -3.12306178E+00 -1.00700939E+00  1.03867560E+00 -1.45584323E+00
  2.69843805E+00  6.75980854E-01 -8.63462777E-01  1.20527948E+00 -2.95722236E+00
 -1.06699681E+00  1.05753100E+00  3.10324300E+00  3.11635333E+00 -1.04230417E+00
  1.00340783E+00  1.01361401E+00  3.13814182E+00 -1.09933149E+00  1.43663104E+00
 -6.95901653E-01 -2.72106351E+00  2.90883869E+00  8.50720938E-01 -1.25774983E+00
ZRed-Constraint2                           R   N=         150
  2.08864957E+00  2.07536640E+00  2.89445042E+00  2.06977550E+00  3.49017130E+00
  2.07160656E+00  2.08100885E+00  4.58255038E+00  2.06996773E+00  2.07569991E+00
  2.89422347E+00  2.08893880E+00  3.49182233E+00  2.08099645E+00  2.07088337E+00
  4.58126145E+00  2.06970534E+00  2.07537204E+00  2.89432348E+00  2.08914900E+00
  3.48849836E+00  2.08108241E+00  2.07253160E+00  4.58210466E+00  2.06945705E+00
  2.08878182E+00  2.89444480E+00  2.07484694E+00  3.48784140E+00  2.07231685E+00
  2.08086487E+00  4.59296383E+00  1.88737821E+00  1.94675721E+00  1.89739798E+00
  1.93132110E+00  1.88062393E+00  1.91867508E+00  1.97836828E+00  1.90652489E+00
  1.91266114E+00  1.90667404E+00  1.89040671E+00  1.86583514E+00  1.77441332E+00
  1.88430520E+00  1.91596637E+00  1.89532552E+00  1.93401198E+00  1.88654934E+00
  1.94609645E+00  1.97963138E+00  1.91367377E+00  1.90566593E+00  1.88964688E+00
  1.90019180E+00  1.87196246E+00  1.78461508E+00  1.88248019E+00  1.92142330E+00
  1.89290882E+00  1.93383780E+00  1.88655014E+00  1.94488488E+00  1.98825484E+00
  1.91094509E+00  1.91079206E+00  1.88774525E+00  1.89201240E+00  1.87036522E+00
  1.78061092E+00  1.89042868E+00  1.92514749E+00  1.88015353E+00  1.94407434E+00
  1.88787349E+00  1.93424314E+00  1.98783499E+00  1.90972665E+00  1.90915981E+00
  1.89522809E+00  1.88656858E+00  1.87175268E+00  1.76286180E+00  1.87473846E+00
  1.93747158E+00  1.90022324E+00  1.91388371E+00  1.93391735E+00  1.90368190E+00
 -3.14069729E+00 -1.01025405E+00  1.02848637E+00  1.04056060E+00 -3.11218147E+00
 -1.07344105E+00 -1.03467371E+00  1.09576953E+00  3.13450995E+00  1.44283285E+00
 -6.87527282E-01 -2.71387206E+00  2.85896976E+00 -1.33198946E+00  7.63827925E-01
  1.05221566E+00 -3.11635715E+00 -1.07014106E+00 -1.02753550E+00  1.08707700E+00
  3.13329309E+00 -3.12979885E+00 -1.01518635E+00  1.03102974E+00 -1.47565779E+00
  2.67946984E+00  6.49757227E-01 -8.35763389E-01 -2.94294575E+00  1.23782388E+00
  1.05912965E+00 -3.10800326E+00 -1.06231828E+00 -1.02172943E+00  1.09432296E+00